VARIABLES="x","y","OMEGA"
ZONE T="BLOCK1",i=100,j=100,F=POINT

0.000000	0.000000	-0.000000
0.000000	0.010101	-0.002648
0.000000	0.020202	-0.011112
0.000000	0.030303	-0.022303
0.000000	0.040404	-0.033445
0.000000	0.050505	-0.042538
0.000000	0.060606	-0.048174
0.000000	0.070707	-0.049339
0.000000	0.080808	-0.045263
0.000000	0.090909	-0.035335
0.000000	0.101010	-0.019048
0.000000	0.111111	0.004025
0.000000	0.121212	0.034252
0.000000	0.131313	0.071947
0.000000	0.141414	0.117373
0.000000	0.151515	0.170739
0.000000	0.161616	0.232198
0.000000	0.171717	0.301846
0.000000	0.181818	0.379710
0.000000	0.191919	0.465752
0.000000	0.202020	0.559860
0.000000	0.212121	0.661846
0.000000	0.222222	0.771447
0.000000	0.232323	0.888318
0.000000	0.242424	1.012037
0.000000	0.252525	1.142103
0.000000	0.262626	1.277940
0.000000	0.272727	1.418901
0.000000	0.282828	1.564271
0.000000	0.292929	1.713275
0.000000	0.303030	1.865082
0.000000	0.313131	2.018817
0.000000	0.323232	2.173567
0.000000	0.333333	2.328391
0.000000	0.343434	2.482330
0.000000	0.353535	2.634420
0.000000	0.363636	2.783695
0.000000	0.373737	2.929209
0.000000	0.383838	3.070035
0.000000	0.393939	3.205283
0.000000	0.404040	3.334106
0.000000	0.414141	3.455710
0.000000	0.424242	3.569363
0.000000	0.434343	3.674401
0.000000	0.444444	3.770233
0.000000	0.454545	3.856349
0.000000	0.464646	3.932326
0.000000	0.474747	3.997824
0.000000	0.484848	4.052596
0.000000	0.494949	4.096484
0.000000	0.505050	4.129420
0.000000	0.515152	4.151426
0.000000	0.525253	4.162611
0.000000	0.535354	4.163170
0.000000	0.545455	4.153376
0.000000	0.555556	4.133579
0.000000	0.565657	4.104201
0.000000	0.575758	4.065732
0.000000	0.585859	4.018718
0.000000	0.595960	3.963767
0.000000	0.606061	3.901529
0.000000	0.616162	3.832702
0.000000	0.626263	3.758020
0.000000	0.636364	3.678251
0.000000	0.646465	3.594189
0.000000	0.656566	3.506655
0.000000	0.666667	3.416489
0.000000	0.676768	3.324552
0.000000	0.686869	3.231722
0.000000	0.696970	3.138899
0.000000	0.707071	3.047009
0.000000	0.717172	2.957009
0.000000	0.727273	2.869898
0.000000	0.737374	2.786733
0.000000	0.747475	2.708655
0.000000	0.757576	2.636917
0.000000	0.767677	2.572930
0.000000	0.777778	2.518325
0.000000	0.787879	2.475031
0.000000	0.797980	2.445394
0.000000	0.808081	2.432328
0.000000	0.818182	2.439529
0.000000	0.828283	2.471766
0.000000	0.838384	2.535271
0.000000	0.848485	2.638283
0.000000	0.858586	2.791792
0.000000	0.868687	3.010548
0.000000	0.878788	3.314478
0.000000	0.888889	3.730693
0.000000	0.898990	4.296431
0.000000	0.909091	5.063602
0.000000	0.919192	6.106306
0.000000	0.929293	7.534070
0.000000	0.939394	9.516260
0.000000	0.949495	12.326474
0.000000	0.959596	16.410902
0.000000	0.969697	22.413063
0.000000	0.979798	30.614292
0.000000	0.989899	36.403690
0.000000	1.000000	-198.000000
0.010101	0.000000	-0.002648
0.010101	0.010101	-0.005786
0.010101	0.020202	-0.008918
0.010101	0.030303	-0.012604
0.010101	0.040404	-0.015900
0.010101	0.050505	-0.017625
0.010101	0.060606	-0.016720
0.010101	0.070707	-0.012316
0.010101	0.080808	-0.003712
0.010101	0.090909	0.009659
0.010101	0.101010	0.028261
0.010101	0.111111	0.052476
0.010101	0.121212	0.082618
0.010101	0.131313	0.118942
0.010101	0.141414	0.161649
0.010101	0.151515	0.210887
0.010101	0.161616	0.266753
0.010101	0.171717	0.329290
0.010101	0.181818	0.398490
0.010101	0.191919	0.474288
0.010101	0.202020	0.556564
0.010101	0.212121	0.645139
0.010101	0.222222	0.739781
0.010101	0.232323	0.840196
0.010101	0.242424	0.946037
0.010101	0.252525	1.056901
0.010101	0.262626	1.172334
0.010101	0.272727	1.291831
0.010101	0.282828	1.414840
0.010101	0.292929	1.540771
0.010101	0.303030	1.668994
0.010101	0.313131	1.798848
0.010101	0.323232	1.929646
0.010101	0.333333	2.060683
0.010101	0.343434	2.191237
0.010101	0.353535	2.320584
0.010101	0.363636	2.447994
0.010101	0.373737	2.572750
0.010101	0.383838	2.694144
0.010101	0.393939	2.811488
0.010101	0.404040	2.924124
0.010101	0.414141	3.031423
0.010101	0.424242	3.132795
0.010101	0.434343	3.227694
0.010101	0.444444	3.315621
0.010101	0.454545	3.396130
0.010101	0.464646	3.468832
0.010101	0.474747	3.533394
0.010101	0.484848	3.589549
0.010101	0.494949	3.637091
0.010101	0.505050	3.675878
0.010101	0.515152	3.705835
0.010101	0.525253	3.726953
0.010101	0.535354	3.739286
0.010101	0.545455	3.742954
0.010101	0.555556	3.738137
0.010101	0.565657	3.725076
0.010101	0.575758	3.704072
0.010101	0.585859	3.675477
0.010101	0.595960	3.639700
0.010101	0.606061	3.597195
0.010101	0.616162	3.548464
0.010101	0.626263	3.494049
0.010101	0.636364	3.434534
0.010101	0.646465	3.370538
0.010101	0.656566	3.302714
0.010101	0.666667	3.231747
0.010101	0.676768	3.158353
0.010101	0.686869	3.083279
0.010101	0.696970	3.007305
0.010101	0.707071	2.931247
0.010101	0.717172	2.855962
0.010101	0.727273	2.782358
0.010101	0.737374	2.711408
0.010101	0.747475	2.644165
0.010101	0.757576	2.581791
0.010101	0.767677	2.525590
0.010101	0.777778	2.477053
0.010101	0.787879	2.437921
0.010101	0.797980	2.410261
0.010101	0.808081	2.396579
0.010101	0.818182	2.399950
0.010101	0.828283	2.424195
0.010101	0.838384	2.474109
0.010101	0.848485	2.555734
0.010101	0.858586	2.676709
0.010101	0.868687	2.846683
0.010101	0.878788	3.077796
0.010101	0.888889	3.385221
0.010101	0.898990	3.787702
0.010101	0.909091	4.307919
0.010101	0.919192	4.972169
0.010101	0.929293	5.807608
0.010101	0.939394	6.831195
0.010101	0.949495	8.010167
0.010101	0.959596	9.121662
0.010101	0.969697	9.232926
0.010101	0.979798	4.572406
0.010101	0.989899	-21.947227
0.010101	1.000000	-161.596298
0.020202	0.000000	-0.011050
0.020202	0.010101	-0.008930
0.020202	0.020202	-0.006168
0.020202	0.030303	-0.003291
0.020202	0.040404	0.000079
0.020202	0.050505	0.004663
0.020202	0.060606	0.011235
0.020202	0.070707	0.020498
0.020202	0.080808	0.033054
0.020202	0.090909	0.049400
0.020202	0.101010	0.069941
0.020202	0.111111	0.095005
0.020202	0.121212	0.124848
0.020202	0.131313	0.159669
0.020202	0.141414	0.199611
0.020202	0.151515	0.244769
0.020202	0.161616	0.295191
0.020202	0.171717	0.350878
0.020202	0.181818	0.411790
0.020202	0.191919	0.477845
0.020202	0.202020	0.548917
0.020202	0.212121	0.624843
0.020202	0.222222	0.705417
0.020202	0.232323	0.790398
0.020202	0.242424	0.879507
0.020202	0.252525	0.972432
0.020202	0.262626	1.068826
0.020202	0.272727	1.168314
0.020202	0.282828	1.270491
0.020202	0.292929	1.374929
0.020202	0.303030	1.481176
0.020202	0.313131	1.588762
0.020202	0.323232	1.697201
0.020202	0.333333	1.805995
0.020202	0.343434	1.914635
0.020202	0.353535	2.022608
0.020202	0.363636	2.129398
0.020202	0.373737	2.234492
0.020202	0.383838	2.337380
0.020202	0.393939	2.437563
0.020202	0.404040	2.534553
0.020202	0.414141	2.627877
0.020202	0.424242	2.717082
0.020202	0.434343	2.801738
0.020202	0.444444	2.881439
0.020202	0.454545	2.955810
0.020202	0.464646	3.024505
0.020202	0.474747	3.087215
0.020202	0.484848	3.143666
0.020202	0.494949	3.193624
0.020202	0.505050	3.236896
0.020202	0.515152	3.273332
0.020202	0.525253	3.302827
0.020202	0.535354	3.325322
0.020202	0.545455	3.340804
0.020202	0.555556	3.349307
0.020202	0.565657	3.350914
0.020202	0.575758	3.345756
0.020202	0.585859	3.334010
0.020202	0.595960	3.315901
0.020202	0.606061	3.291700
0.020202	0.616162	3.261723
0.020202	0.626263	3.226330
0.020202	0.636364	3.185924
0.020202	0.646465	3.140952
0.020202	0.656566	3.091898
0.020202	0.666667	3.039290
0.020202	0.676768	2.983695
0.020202	0.686869	2.925718
0.020202	0.696970	2.866009
0.020202	0.707071	2.805260
0.020202	0.717172	2.744216
0.020202	0.727273	2.683673
0.020202	0.737374	2.624496
0.020202	0.747475	2.567626
0.020202	0.757576	2.514101
0.020202	0.767677	2.465080
0.020202	0.777778	2.421868
0.020202	0.787879	2.385962
0.020202	0.797980	2.359090
0.020202	0.808081	2.343270
0.020202	0.818182	2.340876
0.020202	0.828283	2.354707
0.020202	0.838384	2.388058
0.020202	0.848485	2.444773
0.020202	0.858586	2.529264
0.020202	0.868687	2.646445
0.020202	0.878788	2.801502
0.020202	0.888889	2.999360
0.020202	0.898990	3.243554
0.020202	0.909091	3.533916
0.020202	0.919192	3.861704
0.020202	0.929293	4.198819
0.020202	0.939394	4.472136
0.020202	0.949495	4.497092
0.020202	0.959596	3.788731
0.020202	0.969697	0.961107
0.020202	0.979798	-8.403220
0.020202	0.989899	-39.263924
0.020202	1.000000	-126.893990
0.030303	0.000000	-0.022076
0.030303	0.010101	-0.012718
0.030303	0.020202	-0.003532
0.030303	0.030303	0.005533
0.030303	0.040404	0.014846
0.030303	0.050505	0.024961
0.030303	0.060606	0.036486
0.030303	0.070707	0.049996
0.030303	0.080808	0.065995
0.030303	0.090909	0.084907
0.030303	0.101010	0.107075
0.030303	0.111111	0.132768
0.030303	0.121212	0.162191
0.030303	0.131313	0.195488
0.030303	0.141414	0.232755
0.030303	0.151515	0.274040
0.030303	0.161616	0.319352
0.030303	0.171717	0.368660
0.030303	0.181818	0.421902
0.030303	0.191919	0.478983
0.030303	0.202020	0.539780
0.030303	0.212121	0.604142
0.030303	0.222222	0.671897
0.030303	0.232323	0.742848
0.030303	0.242424	0.816777
0.030303	0.252525	0.893450
0.030303	0.262626	0.972616
0.030303	0.272727	1.054006
0.030303	0.282828	1.137341
0.030303	0.292929	1.222328
0.030303	0.303030	1.308665
0.030303	0.313131	1.396041
0.030303	0.323232	1.484136
0.030303	0.333333	1.572625
0.030303	0.343434	1.661179
0.030303	0.353535	1.749462
0.030303	0.363636	1.837140
0.030303	0.373737	1.923873
0.030303	0.383838	2.009325
0.030303	0.393939	2.093158
0.030303	0.404040	2.175037
0.030303	0.414141	2.254634
0.030303	0.424242	2.331623
0.030303	0.434343	2.405686
0.030303	0.444444	2.476515
0.030303	0.454545	2.543810
0.030303	0.464646	2.607286
0.030303	0.474747	2.666671
0.030303	0.484848	2.721710
0.030303	0.494949	2.772168
0.030303	0.505050	2.817829
0.030303	0.515152	2.858500
0.030303	0.525253	2.894016
0.030303	0.535354	2.924237
0.030303	0.545455	2.949054
0.030303	0.555556	2.968390
0.030303	0.565657	2.982203
0.030303	0.575758	2.990483
0.030303	0.585859	2.993260
0.030303	0.595960	2.990603
0.030303	0.606061	2.982620
0.030303	0.616162	2.969461
0.030303	0.626263	2.951316
0.030303	0.636364	2.928421
0.030303	0.646465	2.901052
0.030303	0.656566	2.869532
0.030303	0.666667	2.834228
0.030303	0.676768	2.795550
0.030303	0.686869	2.753958
0.030303	0.696970	2.709959
0.030303	0.707071	2.664110
0.030303	0.717172	2.617023
0.030303	0.727273	2.569370
0.030303	0.737374	2.521886
0.030303	0.747475	2.475380
0.030303	0.757576	2.430746
0.030303	0.767677	2.388977
0.030303	0.777778	2.351178
0.030303	0.787879	2.318587
0.030303	0.797980	2.292590
0.030303	0.808081	2.274742
0.030303	0.818182	2.266771
0.030303	0.828283	2.270572
0.030303	0.838384	2.288163
0.030303	0.848485	2.321591
0.030303	0.858586	2.372734
0.030303	0.868687	2.442935
0.030303	0.878788	2.532356
0.030303	0.888889	2.638853
0.030303	0.898990	2.755982
0.030303	0.909091	2.869382
0.030303	0.919192	2.949856
0.030303	0.929293	2.939217
0.030303	0.939394	2.718742
0.030303	0.949495	2.031952
0.030303	0.959596	0.275919
0.030303	0.969697	-4.111682
0.030303	0.979798	-15.461899
0.030303	0.989899	-44.719429
0.030303	1.000000	-101.292717
0.040404	0.000000	-0.033047
0.040404	0.010101	-0.016340
0.040404	0.020202	-0.000778
0.040404	0.030303	0.014109
0.040404	0.040404	0.028808
0.040404	0.050505	0.043841
0.040404	0.060606	0.059731
0.040404	0.070707	0.076967
0.040404	0.080808	0.095975
0.040404	0.090909	0.117111
0.040404	0.101010	0.140658
0.040404	0.111111	0.166834
0.040404	0.121212	0.195794
0.040404	0.131313	0.227638
0.040404	0.141414	0.262420
0.040404	0.151515	0.300153
0.040404	0.161616	0.340816
0.040404	0.171717	0.384356
0.040404	0.181818	0.430696
0.040404	0.191919	0.479737
0.040404	0.202020	0.531360
0.040404	0.212121	0.585433
0.040404	0.222222	0.641811
0.040404	0.232323	0.700339
0.040404	0.242424	0.760852
0.040404	0.252525	0.823180
0.040404	0.262626	0.887150
0.040404	0.272727	0.952583
0.040404	0.282828	1.019297
0.040404	0.292929	1.087111
0.040404	0.303030	1.155838
0.040404	0.313131	1.225295
0.040404	0.323232	1.295295
0.040404	0.333333	1.365650
0.040404	0.343434	1.436171
0.040404	0.353535	1.506669
0.040404	0.363636	1.576950
0.040404	0.373737	1.646822
0.040404	0.383838	1.716088
0.040404	0.393939	1.784547
0.040404	0.404040	1.851998
0.040404	0.414141	1.918235
0.040404	0.424242	1.983049
0.040404	0.434343	2.046228
0.040404	0.444444	2.107558
0.040404	0.454545	2.166823
0.040404	0.464646	2.223807
0.040404	0.474747	2.278291
0.040404	0.484848	2.330061
0.040404	0.494949	2.378904
0.040404	0.505050	2.424611
0.040404	0.515152	2.466982
0.040404	0.525253	2.505824
0.040404	0.535354	2.540957
0.040404	0.545455	2.572214
0.040404	0.555556	2.599445
0.040404	0.565657	2.622520
0.040404	0.575758	2.641330
0.040404	0.585859	2.655792
0.040404	0.595960	2.665851
0.040404	0.606061	2.671483
0.040404	0.616162	2.672695
0.040404	0.626263	2.669532
0.040404	0.636364	2.662078
0.040404	0.646465	2.650457
0.040404	0.656566	2.634833
0.040404	0.666667	2.615419
0.040404	0.676768	2.592472
0.040404	0.686869	2.566300
0.040404	0.696970	2.537261
0.040404	0.707071	2.505767
0.040404	0.717172	2.472288
0.040404	0.727273	2.437352
0.040404	0.737374	2.401554
0.040404	0.747475	2.365556
0.040404	0.757576	2.330096
0.040404	0.767677	2.295992
0.040404	0.777778	2.264150
0.040404	0.787879	2.235561
0.040404	0.797980	2.211305
0.040404	0.808081	2.192538
0.040404	0.818182	2.180459
0.040404	0.828283	2.176258
0.040404	0.838384	2.181004
0.040404	0.848485	2.195458
0.040404	0.858586	2.219763
0.040404	0.868687	2.252918
0.040404	0.878788	2.291912
0.040404	0.888889	2.330287
0.040404	0.898990	2.355656
0.040404	0.909091	2.345300
0.040404	0.919192	2.257864
0.040404	0.929293	2.016617
0.040404	0.939394	1.472950
0.040404	0.949495	0.320114
0.040404	0.959596	-2.125117
0.040404	0.969697	-7.486824
0.040404	0.979798	-19.607895
0.040404	0.989899	-45.553448
0.040404	1.000000	-83.236977
0.050505	0.000000	-0.042204
0.050505	0.010101	-0.018822
0.050505	0.020202	0.002645
0.050505	0.030303	0.022873
0.050505	0.040404	0.042434
0.050505	0.050505	0.061853
0.050505	0.060606	0.081608
0.050505	0.070707	0.102128
0.050505	0.080808	0.123777
0.050505	0.090909	0.146856
0.050505	0.101010	0.171596
0.050505	0.111111	0.198167
0.050505	0.121212	0.226683
0.050505	0.131313	0.257208
0.050505	0.141414	0.289765
0.050505	0.151515	0.324339
0.050505	0.161616	0.360888
0.050505	0.171717	0.399345
0.050505	0.181818	0.439626
0.050505	0.191919	0.481633
0.050505	0.202020	0.525257
0.050505	0.212121	0.570383
0.050505	0.222222	0.616892
0.050505	0.232323	0.664665
0.050505	0.242424	0.713582
0.050505	0.252525	0.763527
0.050505	0.262626	0.814386
0.050505	0.272727	0.866050
0.050505	0.282828	0.918416
0.050505	0.292929	0.971384
0.050505	0.303030	1.024859
0.050505	0.313131	1.078753
0.050505	0.323232	1.132978
0.050505	0.333333	1.187451
0.050505	0.343434	1.242092
0.050505	0.353535	1.296819
0.050505	0.363636	1.351553
0.050505	0.373737	1.406211
0.050505	0.383838	1.460708
0.050505	0.393939	1.514954
0.050505	0.404040	1.568855
0.050505	0.414141	1.622311
0.050505	0.424242	1.675213
0.050505	0.434343	1.727444
0.050505	0.444444	1.778879
0.050505	0.454545	1.829384
0.050505	0.464646	1.878815
0.050505	0.474747	1.927020
0.050505	0.484848	1.973836
0.050505	0.494949	2.019094
0.050505	0.505050	2.062618
0.050505	0.515152	2.104225
0.050505	0.525253	2.143729
0.050505	0.535354	2.180944
0.050505	0.545455	2.215680
0.050505	0.555556	2.247755
0.050505	0.565657	2.276988
0.050505	0.575758	2.303211
0.050505	0.585859	2.326267
0.050505	0.595960	2.346012
0.050505	0.606061	2.362325
0.050505	0.616162	2.375105
0.050505	0.626263	2.384280
0.050505	0.636364	2.389806
0.050505	0.646465	2.391673
0.050505	0.656566	2.389909
0.050505	0.666667	2.384581
0.050505	0.676768	2.375803
0.050505	0.686869	2.363734
0.050505	0.696970	2.348584
0.050505	0.707071	2.330615
0.050505	0.717172	2.310149
0.050505	0.727273	2.287565
0.050505	0.737374	2.263306
0.050505	0.747475	2.237880
0.050505	0.757576	2.211862
0.050505	0.767677	2.185896
0.050505	0.777778	2.160694
0.050505	0.787879	2.137025
0.050505	0.797980	2.115705
0.050505	0.808081	2.097568
0.050505	0.818182	2.083414
0.050505	0.828283	2.073926
0.050505	0.838384	2.069527
0.050505	0.848485	2.070153
0.050505	0.858586	2.074875
0.050505	0.868687	2.081295
0.050505	0.878788	2.084544
0.050505	0.888889	2.075601
0.050505	0.898990	2.038390
0.050505	0.909091	1.944553
0.050505	0.919192	1.743606
0.050505	0.929293	1.343369
0.050505	0.939394	0.568731
0.050505	0.949495	-0.930087
0.050505	0.959596	-3.887804
0.050505	0.969697	-9.883487
0.050505	0.979798	-22.065710
0.050505	0.989899	-44.461391
0.050505	1.000000	-70.482681
0.060606	0.000000	-0.048525
0.060606	0.010101	-0.019394
0.060606	0.020202	0.007307
0.060606	0.030303	0.032307
0.060606	0.040404	0.056208
0.060606	0.050505	0.079524
0.060606	0.060606	0.102702
0.060606	0.070707	0.126124
0.060606	0.080808	0.150106
0.060606	0.090909	0.174899
0.060606	0.101010	0.200693
0.060606	0.111111	0.227618
0.060606	0.121212	0.255754
0.060606	0.131313	0.285136
0.060606	0.141414	0.315762
0.060606	0.151515	0.347601
0.060606	0.161616	0.380597
0.060606	0.171717	0.414675
0.060606	0.181818	0.449751
0.060606	0.191919	0.485730
0.060606	0.202020	0.522516
0.060606	0.212121	0.560012
0.060606	0.222222	0.598124
0.060606	0.232323	0.636761
0.060606	0.242424	0.675841
0.060606	0.252525	0.715290
0.060606	0.262626	0.755042
0.060606	0.272727	0.795040
0.060606	0.282828	0.835238
0.060606	0.292929	0.875599
0.060606	0.303030	0.916093
0.060606	0.313131	0.956701
0.060606	0.323232	0.997409
0.060606	0.333333	1.038209
0.060606	0.343434	1.079099
0.060606	0.353535	1.120078
0.060606	0.363636	1.161147
0.060606	0.373737	1.202308
0.060606	0.383838	1.243559
0.060606	0.393939	1.284897
0.060606	0.404040	1.326312
0.060606	0.414141	1.367785
0.060606	0.424242	1.409294
0.060606	0.434343	1.450801
0.060606	0.444444	1.492261
0.060606	0.454545	1.533614
0.060606	0.464646	1.574790
0.060606	0.474747	1.615700
0.060606	0.484848	1.656247
0.060606	0.494949	1.696313
0.060606	0.505050	1.735771
0.060606	0.515152	1.774478
0.060606	0.525253	1.812277
0.060606	0.535354	1.849001
0.060606	0.545455	1.884473
0.060606	0.555556	1.918506
0.060606	0.565657	1.950910
0.060606	0.575758	1.981490
0.060606	0.585859	2.010051
0.060606	0.595960	2.036401
0.060606	0.606061	2.060356
0.060606	0.616162	2.081743
0.060606	0.626263	2.100403
0.060606	0.636364	2.116196
0.060606	0.646465	2.129008
0.060606	0.656566	2.138751
0.060606	0.666667	2.145370
0.060606	0.676768	2.148847
0.060606	0.686869	2.149207
0.060606	0.696970	2.146520
0.060606	0.707071	2.140903
0.060606	0.717172	2.132532
0.060606	0.727273	2.121633
0.060606	0.737374	2.108498
0.060606	0.747475	2.093475
0.060606	0.757576	2.076978
0.060606	0.767677	2.059480
0.060606	0.777778	2.041507
0.060606	0.787879	2.023631
0.060606	0.797980	2.006444
0.060606	0.808081	1.990527
0.060606	0.818182	1.976386
0.060606	0.828283	1.964360
0.060606	0.838384	1.954465
0.060606	0.848485	1.946145
0.060606	0.858586	1.937861
0.060606	0.868687	1.926430
0.060606	0.878788	1.905887
0.060606	0.888889	1.865550
0.060606	0.898990	1.786599
0.060606	0.909091	1.635871
0.060606	0.919192	1.354299
0.060606	0.929293	0.834618
0.060606	0.939394	-0.123100
0.060606	0.949495	-1.902563
0.060606	0.959596	-5.256200
0.060606	0.969697	-11.634599
0.060606	0.979798	-23.459555
0.060606	0.989899	-42.625809
0.060606	1.000000	-61.307873
0.070707	0.000000	-0.051479
0.070707	0.010101	-0.017537
0.070707	0.020202	0.013675
0.070707	0.030303	0.042853
0.070707	0.040404	0.070578
0.070707	0.050505	0.097338
0.070707	0.060606	0.123544
0.070707	0.070707	0.149535
0.070707	0.080808	0.175587
0.070707	0.090909	0.201909
0.070707	0.101010	0.228654
0.070707	0.111111	0.255922
0.070707	0.121212	0.283765
0.070707	0.131313	0.312196
0.070707	0.141414	0.341196
0.070707	0.151515	0.370722
0.070707	0.161616	0.400711
0.070707	0.171717	0.431086
0.070707	0.181818	0.461766
0.070707	0.191919	0.492666
0.070707	0.202020	0.523700
0.070707	0.212121	0.554789
0.070707	0.222222	0.585860
0.070707	0.232323	0.616849
0.070707	0.242424	0.647703
0.070707	0.252525	0.678380
0.070707	0.262626	0.708850
0.070707	0.272727	0.739096
0.070707	0.282828	0.769113
0.070707	0.292929	0.798909
0.070707	0.303030	0.828500
0.070707	0.313131	0.857916
0.070707	0.323232	0.887194
0.070707	0.333333	0.916377
0.070707	0.343434	0.945519
0.070707	0.353535	0.974675
0.070707	0.363636	1.003903
0.070707	0.373737	1.033265
0.070707	0.383838	1.062821
0.070707	0.393939	1.092627
0.070707	0.404040	1.122738
0.070707	0.414141	1.153202
0.070707	0.424242	1.184059
0.070707	0.434343	1.215338
0.070707	0.444444	1.247060
0.070707	0.454545	1.279231
0.070707	0.464646	1.311844
0.070707	0.474747	1.344876
0.070707	0.484848	1.378288
0.070707	0.494949	1.412023
0.070707	0.505050	1.446008
0.070707	0.515152	1.480150
0.070707	0.525253	1.514339
0.070707	0.535354	1.548445
0.070707	0.545455	1.582323
0.070707	0.555556	1.615811
0.070707	0.565657	1.648732
0.070707	0.575758	1.680897
0.070707	0.585859	1.712106
0.070707	0.595960	1.742151
0.070707	0.606061	1.770821
0.070707	0.616162	1.797901
0.070707	0.626263	1.823183
0.070707	0.636364	1.846464
0.070707	0.646465	1.867553
0.070707	0.656566	1.886276
0.070707	0.666667	1.902483
0.070707	0.676768	1.916048
0.070707	0.686869	1.926879
0.070707	0.696970	1.934922
0.070707	0.707071	1.940164
0.070707	0.717172	1.942640
0.070707	0.727273	1.942436
0.070707	0.737374	1.939690
0.070707	0.747475	1.934601
0.070707	0.757576	1.927422
0.070707	0.767677	1.918459
0.070707	0.777778	1.908068
0.070707	0.787879	1.896641
0.070707	0.797980	1.884579
0.070707	0.808081	1.872262
0.070707	0.818182	1.859981
0.070707	0.828283	1.847846
0.070707	0.838384	1.835624
0.070707	0.848485	1.822484
0.070707	0.858586	1.806561
0.070707	0.868687	1.784221
0.070707	0.878788	1.748786
0.070707	0.888889	1.688276
0.070707	0.898990	1.581384
0.070707	0.909091	1.390209
0.070707	0.919192	1.047016
0.070707	0.929293	0.429850
0.070707	0.939394	-0.682858
0.070707	0.949495	-2.696754
0.070707	0.959596	-6.350524
0.070707	0.969697	-12.918509
0.070707	0.979798	-24.164761
0.070707	0.989899	-40.586014
0.070707	1.000000	-54.538391
0.080808	0.000000	-0.050854
0.080808	0.010101	-0.012945
0.080808	0.020202	0.022091
0.080808	0.030303	0.054877
0.080808	0.040404	0.085941
0.080808	0.050505	0.115726
0.080808	0.060606	0.144603
0.080808	0.070707	0.172870
0.080808	0.080808	0.200764
0.080808	0.090909	0.228461
0.080808	0.101010	0.256080
0.080808	0.111111	0.283696
0.080808	0.121212	0.311339
0.080808	0.131313	0.339007
0.080808	0.141414	0.366668
0.080808	0.151515	0.394272
0.080808	0.161616	0.421754
0.080808	0.171717	0.449040
0.080808	0.181818	0.476053
0.080808	0.191919	0.502717
0.080808	0.202020	0.528961
0.080808	0.212121	0.554721
0.080808	0.222222	0.579942
0.080808	0.232323	0.604582
0.080808	0.242424	0.628612
0.080808	0.252525	0.652015
0.080808	0.262626	0.674788
0.080808	0.272727	0.696942
0.080808	0.282828	0.718503
0.080808	0.292929	0.739509
0.080808	0.303030	0.760009
0.080808	0.313131	0.780066
0.080808	0.323232	0.799750
0.080808	0.333333	0.819143
0.080808	0.343434	0.838332
0.080808	0.353535	0.857411
0.080808	0.363636	0.876478
0.080808	0.373737	0.895635
0.080808	0.383838	0.914984
0.080808	0.393939	0.934626
0.080808	0.404040	0.954660
0.080808	0.414141	0.975182
0.080808	0.424242	0.996281
0.080808	0.434343	1.018037
0.080808	0.444444	1.040522
0.080808	0.454545	1.063797
0.080808	0.464646	1.087908
0.080808	0.474747	1.112888
0.080808	0.484848	1.138754
0.080808	0.494949	1.165506
0.080808	0.505050	1.193123
0.080808	0.515152	1.221567
0.080808	0.525253	1.250778
0.080808	0.535354	1.280676
0.080808	0.545455	1.311160
0.080808	0.555556	1.342107
0.080808	0.565657	1.373376
0.080808	0.575758	1.404802
0.080808	0.585859	1.436206
0.080808	0.595960	1.467392
0.080808	0.606061	1.498147
0.080808	0.616162	1.528250
0.080808	0.626263	1.557470
0.080808	0.636364	1.585574
0.080808	0.646465	1.612326
0.080808	0.656566	1.637498
0.080808	0.666667	1.660870
0.080808	0.676768	1.682238
0.080808	0.686869	1.701418
0.080808	0.696970	1.718254
0.080808	0.707071	1.732621
0.080808	0.717172	1.744433
0.080808	0.727273	1.753645
0.080808	0.737374	1.760259
0.080808	0.747475	1.764328
0.080808	0.757576	1.765956
0.080808	0.767677	1.765293
0.080808	0.777778	1.762537
0.080808	0.787879	1.757913
0.080808	0.797980	1.751661
0.080808	0.808081	1.743992
0.080808	0.818182	1.735037
0.080808	0.828283	1.724747
0.080808	0.838384	1.712741
0.080808	0.848485	1.698035
0.080808	0.858586	1.678587
0.080808	0.868687	1.650480
0.080808	0.878788	1.606471
0.080808	0.888889	1.533381
0.080808	0.898990	1.407416
0.080808	0.909091	1.185847
0.080808	0.919192	0.792341
0.080808	0.929293	0.091404
0.080808	0.939394	-1.155634
0.080808	0.949495	-3.364028
0.080808	0.959596	-7.234915
0.080808	0.969697	-13.849623
0.080808	0.979798	-24.423153
0.080808	0.989899	-38.581547
0.080808	1.000000	-49.400036
0.090909	0.000000	-0.046632
0.090909	0.010101	-0.005471
0.090909	0.020202	0.032782
0.090909	0.030303	0.068658
0.090909	0.040404	0.102618
0.090909	0.050505	0.135050
0.090909	0.060606	0.166279
0.090909	0.070707	0.196563
0.090909	0.080808	0.226101
0.090909	0.090909	0.255038
0.090909	0.101010	0.283466
0.090909	0.111111	0.311437
0.090909	0.121212	0.338965
0.090909	0.131313	0.366035
0.090909	0.141414	0.392608
0.090909	0.151515	0.418629
0.090909	0.161616	0.444034
0.090909	0.171717	0.468754
0.090909	0.181818	0.492718
0.090909	0.191919	0.515860
0.090909	0.202020	0.538122
0.090909	0.212121	0.559454
0.090909	0.222222	0.579817
0.090909	0.232323	0.599188
0.090909	0.242424	0.617555
0.090909	0.252525	0.634920
0.090909	0.262626	0.651304
0.090909	0.272727	0.666737
0.090909	0.282828	0.681265
0.090909	0.292929	0.694950
0.090909	0.303030	0.707863
0.090909	0.313131	0.720089
0.090909	0.323232	0.731721
0.090909	0.333333	0.742865
0.090909	0.343434	0.753633
0.090909	0.353535	0.764143
0.090909	0.363636	0.774521
0.090909	0.373737	0.784894
0.090909	0.383838	0.795393
0.090909	0.393939	0.806150
0.090909	0.404040	0.817296
0.090909	0.414141	0.828959
0.090909	0.424242	0.841262
0.090909	0.434343	0.854325
0.090909	0.444444	0.868257
0.090909	0.454545	0.883160
0.090909	0.464646	0.899124
0.090909	0.474747	0.916227
0.090909	0.484848	0.934533
0.090909	0.494949	0.954088
0.090909	0.505050	0.974923
0.090909	0.515152	0.997048
0.090909	0.525253	1.020454
0.090909	0.535354	1.045111
0.090909	0.545455	1.070966
0.090909	0.555556	1.097944
0.090909	0.565657	1.125946
0.090909	0.575758	1.154850
0.090909	0.585859	1.184510
0.090909	0.595960	1.214759
0.090909	0.606061	1.245409
0.090909	0.616162	1.276251
0.090909	0.626263	1.307062
0.090909	0.636364	1.337603
0.090909	0.646465	1.367624
0.090909	0.656566	1.396869
0.090909	0.666667	1.425080
0.090909	0.676768	1.452002
0.090909	0.686869	1.477389
0.090909	0.696970	1.501007
0.090909	0.707071	1.522644
0.090909	0.717172	1.542115
0.090909	0.727273	1.559266
0.090909	0.737374	1.573978
0.090909	0.747475	1.586176
0.090909	0.757576	1.595827
0.090909	0.767677	1.602941
0.090909	0.777778	1.607568
0.090909	0.787879	1.609788
0.090909	0.797980	1.609693
0.090909	0.808081	1.607354
0.090909	0.818182	1.602771
0.090909	0.828283	1.595782
0.090909	0.838384	1.585906
0.090909	0.848485	1.572075
0.090909	0.858586	1.552136
0.090909	0.868687	1.521953
0.090909	0.878788	1.473760
0.090909	0.888889	1.393172
0.090909	0.898990	1.253859
0.090909	0.909091	1.008262
0.090909	0.919192	0.571875
0.090909	0.929293	-0.202567
0.090909	0.939394	-1.565805
0.090909	0.949495	-3.931951
0.090909	0.959596	-7.949454
0.090909	0.969697	-14.510550
0.090909	0.979798	-24.393566
0.090909	0.989899	-36.708858
0.090909	1.000000	-45.385242
0.101010	0.000000	-0.038908
0.101010	0.010101	0.004925
0.101010	0.020202	0.045882
0.101010	0.030303	0.084398
0.101010	0.040404	0.120862
0.101010	0.050505	0.155606
0.101010	0.060606	0.188903
0.101010	0.070707	0.220972
0.101010	0.080808	0.251977
0.101010	0.090909	0.282031
0.101010	0.101010	0.311204
0.101010	0.111111	0.339529
0.101010	0.121212	0.367004
0.101010	0.131313	0.393606
0.101010	0.141414	0.419289
0.101010	0.151515	0.443999
0.101010	0.161616	0.467671
0.101010	0.171717	0.490242
0.101010	0.181818	0.511649
0.101010	0.191919	0.531835
0.101010	0.202020	0.550754
0.101010	0.212121	0.568367
0.101010	0.222222	0.584652
0.101010	0.232323	0.599598
0.101010	0.242424	0.613209
0.101010	0.252525	0.625505
0.101010	0.262626	0.636519
0.101010	0.272727	0.646299
0.101010	0.282828	0.654909
0.101010	0.292929	0.662423
0.101010	0.303030	0.668931
0.101010	0.313131	0.674533
0.101010	0.323232	0.679340
0.101010	0.333333	0.683473
0.101010	0.343434	0.687060
0.101010	0.353535	0.690239
0.101010	0.363636	0.693151
0.101010	0.373737	0.695943
0.101010	0.383838	0.698767
0.101010	0.393939	0.701772
0.101010	0.404040	0.705113
0.101010	0.414141	0.708939
0.101010	0.424242	0.713400
0.101010	0.434343	0.718639
0.101010	0.444444	0.724796
0.101010	0.454545	0.732001
0.101010	0.464646	0.740376
0.101010	0.474747	0.750033
0.101010	0.484848	0.761072
0.101010	0.494949	0.773577
0.101010	0.505050	0.787619
0.101010	0.515152	0.803252
0.101010	0.525253	0.820510
0.101010	0.535354	0.839407
0.101010	0.545455	0.859938
0.101010	0.555556	0.882073
0.101010	0.565657	0.905759
0.101010	0.575758	0.930919
0.101010	0.585859	0.957450
0.101010	0.595960	0.985227
0.101010	0.606061	1.014095
0.101010	0.616162	1.043878
0.101010	0.626263	1.074375
0.101010	0.636364	1.105366