VARIABLES="x","y","PSI"
ZONE T="BLOCK1",i=100,j=100,F=POINT

0.000000	0.000000	0.000000
0.000000	0.010101	0.000000
0.000000	0.020202	0.000000
0.000000	0.030303	0.000000
0.000000	0.040404	0.000000
0.000000	0.050505	0.000000
0.000000	0.060606	0.000000
0.000000	0.070707	0.000000
0.000000	0.080808	0.000000
0.000000	0.090909	0.000000
0.000000	0.101010	0.000000
0.000000	0.111111	0.000000
0.000000	0.121212	0.000000
0.000000	0.131313	0.000000
0.000000	0.141414	0.000000
0.000000	0.151515	0.000000
0.000000	0.161616	0.000000
0.000000	0.171717	0.000000
0.000000	0.181818	0.000000
0.000000	0.191919	0.000000
0.000000	0.202020	0.000000
0.000000	0.212121	0.000000
0.000000	0.222222	0.000000
0.000000	0.232323	0.000000
0.000000	0.242424	0.000000
0.000000	0.252525	0.000000
0.000000	0.262626	0.000000
0.000000	0.272727	0.000000
0.000000	0.282828	0.000000
0.000000	0.292929	0.000000
0.000000	0.303030	0.000000
0.000000	0.313131	0.000000
0.000000	0.323232	0.000000
0.000000	0.333333	0.000000
0.000000	0.343434	0.000000
0.000000	0.353535	0.000000
0.000000	0.363636	0.000000
0.000000	0.373737	0.000000
0.000000	0.383838	0.000000
0.000000	0.393939	0.000000
0.000000	0.404040	0.000000
0.000000	0.414141	0.000000
0.000000	0.424242	0.000000
0.000000	0.434343	0.000000
0.000000	0.444444	0.000000
0.000000	0.454545	0.000000
0.000000	0.464646	0.000000
0.000000	0.474747	0.000000
0.000000	0.484848	0.000000
0.000000	0.494949	0.000000
0.000000	0.505050	0.000000
0.000000	0.515152	0.000000
0.000000	0.525253	0.000000
0.000000	0.535354	0.000000
0.000000	0.545455	0.000000
0.000000	0.555556	0.000000
0.000000	0.565657	0.000000
0.000000	0.575758	0.000000
0.000000	0.585859	0.000000
0.000000	0.595960	0.000000
0.000000	0.606061	0.000000
0.000000	0.616162	0.000000
0.000000	0.626263	0.000000
0.000000	0.636364	0.000000
0.000000	0.646465	0.000000
0.000000	0.656566	0.000000
0.000000	0.666667	0.000000
0.000000	0.676768	0.000000
0.000000	0.686869	0.000000
0.000000	0.696970	0.000000
0.000000	0.707071	0.000000
0.000000	0.717172	0.000000
0.000000	0.727273	0.000000
0.000000	0.737374	0.000000
0.000000	0.747475	0.000000
0.000000	0.757576	0.000000
0.000000	0.767677	0.000000
0.000000	0.777778	0.000000
0.000000	0.787879	0.000000
0.000000	0.797980	0.000000
0.000000	0.808081	0.000000
0.000000	0.818182	0.000000
0.000000	0.828283	0.000000
0.000000	0.838384	0.000000
0.000000	0.848485	0.000000
0.000000	0.858586	0.000000
0.000000	0.868687	0.000000
0.000000	0.878788	0.000000
0.000000	0.888889	0.000000
0.000000	0.898990	0.000000
0.000000	0.909091	0.000000
0.000000	0.919192	0.000000
0.000000	0.929293	0.000000
0.000000	0.939394	0.000000
0.000000	0.949495	0.000000
0.000000	0.959596	0.000000
0.000000	0.969697	0.000000
0.000000	0.979798	0.000000
0.000000	0.989899	0.000000
0.000000	1.000000	0.000000
0.010101	0.000000	0.000000
0.010101	0.010101	0.000000
0.010101	0.020202	0.000001
0.010101	0.030303	0.000001
0.010101	0.040404	0.000002
0.010101	0.050505	0.000002
0.010101	0.060606	0.000002
0.010101	0.070707	0.000003
0.010101	0.080808	0.000002
0.010101	0.090909	0.000002
0.010101	0.101010	0.000001
0.010101	0.111111	-0.000000
0.010101	0.121212	-0.000002
0.010101	0.131313	-0.000004
0.010101	0.141414	-0.000006
0.010101	0.151515	-0.000009
0.010101	0.161616	-0.000012
0.010101	0.171717	-0.000015
0.010101	0.181818	-0.000019
0.010101	0.191919	-0.000024
0.010101	0.202020	-0.000029
0.010101	0.212121	-0.000034
0.010101	0.222222	-0.000039
0.010101	0.232323	-0.000045
0.010101	0.242424	-0.000052
0.010101	0.252525	-0.000058
0.010101	0.262626	-0.000065
0.010101	0.272727	-0.000072
0.010101	0.282828	-0.000080
0.010101	0.292929	-0.000087
0.010101	0.303030	-0.000095
0.010101	0.313131	-0.000103
0.010101	0.323232	-0.000111
0.010101	0.333333	-0.000119
0.010101	0.343434	-0.000127
0.010101	0.353535	-0.000134
0.010101	0.363636	-0.000142
0.010101	0.373737	-0.000149
0.010101	0.383838	-0.000157
0.010101	0.393939	-0.000164
0.010101	0.404040	-0.000170
0.010101	0.414141	-0.000176
0.010101	0.424242	-0.000182
0.010101	0.434343	-0.000187
0.010101	0.444444	-0.000192
0.010101	0.454545	-0.000197
0.010101	0.464646	-0.000201
0.010101	0.474747	-0.000204
0.010101	0.484848	-0.000207
0.010101	0.494949	-0.000209
0.010101	0.505050	-0.000211
0.010101	0.515152	-0.000212
0.010101	0.525253	-0.000212
0.010101	0.535354	-0.000212
0.010101	0.545455	-0.000212
0.010101	0.555556	-0.000211
0.010101	0.565657	-0.000209
0.010101	0.575758	-0.000207
0.010101	0.585859	-0.000205
0.010101	0.595960	-0.000202
0.010101	0.606061	-0.000199
0.010101	0.616162	-0.000196
0.010101	0.626263	-0.000192
0.010101	0.636364	-0.000188
0.010101	0.646465	-0.000183
0.010101	0.656566	-0.000179
0.010101	0.666667	-0.000174
0.010101	0.676768	-0.000170
0.010101	0.686869	-0.000165
0.010101	0.696970	-0.000160
0.010101	0.707071	-0.000155
0.010101	0.717172	-0.000151
0.010101	0.727273	-0.000146
0.010101	0.737374	-0.000142
0.010101	0.747475	-0.000138
0.010101	0.757576	-0.000135
0.010101	0.767677	-0.000131
0.010101	0.777778	-0.000128
0.010101	0.787879	-0.000126
0.010101	0.797980	-0.000125
0.010101	0.808081	-0.000124
0.010101	0.818182	-0.000124
0.010101	0.828283	-0.000126
0.010101	0.838384	-0.000129
0.010101	0.848485	-0.000135
0.010101	0.858586	-0.000142
0.010101	0.868687	-0.000154
0.010101	0.878788	-0.000169
0.010101	0.888889	-0.000190
0.010101	0.898990	-0.000219
0.010101	0.909091	-0.000258
0.010101	0.919192	-0.000312
0.010101	0.929293	-0.000384
0.010101	0.939394	-0.000485
0.010101	0.949495	-0.000629
0.010101	0.959596	-0.000837
0.010101	0.969697	-0.001143
0.010101	0.979798	-0.001562
0.010101	0.989899	-0.001857
0.010101	1.000000	0.000000
0.020202	0.000000	0.000000
0.020202	0.010101	0.000001
0.020202	0.020202	0.000002
0.020202	0.030303	0.000004
0.020202	0.040404	0.000005
0.020202	0.050505	0.000006
0.020202	0.060606	0.000007
0.020202	0.070707	0.000007
0.020202	0.080808	0.000005
0.020202	0.090909	0.000003
0.020202	0.101010	-0.000001
0.020202	0.111111	-0.000005
0.020202	0.121212	-0.000012
0.020202	0.131313	-0.000019
0.020202	0.141414	-0.000028
0.020202	0.151515	-0.000039
0.020202	0.161616	-0.000050
0.020202	0.171717	-0.000064
0.020202	0.181818	-0.000079
0.020202	0.191919	-0.000096
0.020202	0.202020	-0.000114
0.020202	0.212121	-0.000133
0.020202	0.222222	-0.000154
0.020202	0.232323	-0.000176
0.020202	0.242424	-0.000199
0.020202	0.252525	-0.000224
0.020202	0.262626	-0.000250
0.020202	0.272727	-0.000276
0.020202	0.282828	-0.000304
0.020202	0.292929	-0.000332
0.020202	0.303030	-0.000360
0.020202	0.313131	-0.000389
0.020202	0.323232	-0.000419
0.020202	0.333333	-0.000448
0.020202	0.343434	-0.000477
0.020202	0.353535	-0.000506
0.020202	0.363636	-0.000534
0.020202	0.373737	-0.000562
0.020202	0.383838	-0.000588
0.020202	0.393939	-0.000614
0.020202	0.404040	-0.000639
0.020202	0.414141	-0.000662
0.020202	0.424242	-0.000684
0.020202	0.434343	-0.000705
0.020202	0.444444	-0.000723
0.020202	0.454545	-0.000740
0.020202	0.464646	-0.000756
0.020202	0.474747	-0.000769
0.020202	0.484848	-0.000780
0.020202	0.494949	-0.000790
0.020202	0.505050	-0.000797
0.020202	0.515152	-0.000802
0.020202	0.525253	-0.000806
0.020202	0.535354	-0.000807
0.020202	0.545455	-0.000806
0.020202	0.555556	-0.000804
0.020202	0.565657	-0.000799
0.020202	0.575758	-0.000793
0.020202	0.585859	-0.000785
0.020202	0.595960	-0.000776
0.020202	0.606061	-0.000765
0.020202	0.616162	-0.000753
0.020202	0.626263	-0.000740
0.020202	0.636364	-0.000726
0.020202	0.646465	-0.000711
0.020202	0.656566	-0.000695
0.020202	0.666667	-0.000678
0.020202	0.676768	-0.000661
0.020202	0.686869	-0.000644
0.020202	0.696970	-0.000627
0.020202	0.707071	-0.000610
0.020202	0.717172	-0.000593
0.020202	0.727273	-0.000577
0.020202	0.737374	-0.000561
0.020202	0.747475	-0.000546
0.020202	0.757576	-0.000532
0.020202	0.767677	-0.000520
0.020202	0.777778	-0.000509
0.020202	0.787879	-0.000501
0.020202	0.797980	-0.000495
0.020202	0.808081	-0.000492
0.020202	0.818182	-0.000492
0.020202	0.828283	-0.000498
0.020202	0.838384	-0.000509
0.020202	0.848485	-0.000527
0.020202	0.858586	-0.000555
0.020202	0.868687	-0.000593
0.020202	0.878788	-0.000646
0.020202	0.888889	-0.000718
0.020202	0.898990	-0.000815
0.020202	0.909091	-0.000942
0.020202	0.919192	-0.001111
0.020202	0.929293	-0.001333
0.020202	0.939394	-0.001626
0.020202	0.949495	-0.002010
0.020202	0.959596	-0.002507
0.020202	0.969697	-0.003117
0.020202	0.979798	-0.003713
0.020202	0.989899	-0.003627
0.020202	1.000000	0.000000
0.030303	0.000000	0.000000
0.030303	0.010101	0.000001
0.030303	0.020202	0.000004
0.030303	0.030303	0.000006
0.030303	0.040404	0.000009
0.030303	0.050505	0.000011
0.030303	0.060606	0.000011
0.030303	0.070707	0.000009
0.030303	0.080808	0.000006
0.030303	0.090909	0.000000
0.030303	0.101010	-0.000008
0.030303	0.111111	-0.000019
0.030303	0.121212	-0.000033
0.030303	0.131313	-0.000049
0.030303	0.141414	-0.000069
0.030303	0.151515	-0.000092
0.030303	0.161616	-0.000118
0.030303	0.171717	-0.000147
0.030303	0.181818	-0.000179
0.030303	0.191919	-0.000215
0.030303	0.202020	-0.000253
0.030303	0.212121	-0.000295
0.030303	0.222222	-0.000339
0.030303	0.232323	-0.000386
0.030303	0.242424	-0.000436
0.030303	0.252525	-0.000488
0.030303	0.262626	-0.000542
0.030303	0.272727	-0.000599
0.030303	0.282828	-0.000657
0.030303	0.292929	-0.000716
0.030303	0.303030	-0.000777
0.030303	0.313131	-0.000838
0.030303	0.323232	-0.000900
0.030303	0.333333	-0.000961
0.030303	0.343434	-0.001023
0.030303	0.353535	-0.001084
0.030303	0.363636	-0.001144
0.030303	0.373737	-0.001203
0.030303	0.383838	-0.001260
0.030303	0.393939	-0.001315
0.030303	0.404040	-0.001368
0.030303	0.414141	-0.001418
0.030303	0.424242	-0.001465
0.030303	0.434343	-0.001509
0.030303	0.444444	-0.001550
0.030303	0.454545	-0.001588
0.030303	0.464646	-0.001621
0.030303	0.474747	-0.001651
0.030303	0.484848	-0.001677
0.030303	0.494949	-0.001698
0.030303	0.505050	-0.001715
0.030303	0.515152	-0.001729
0.030303	0.525253	-0.001738
0.030303	0.535354	-0.001742
0.030303	0.545455	-0.001743
0.030303	0.555556	-0.001740
0.030303	0.565657	-0.001733
0.030303	0.575758	-0.001722
0.030303	0.585859	-0.001708
0.030303	0.595960	-0.001690
0.030303	0.606061	-0.001669
0.030303	0.616162	-0.001645
0.030303	0.626263	-0.001619
0.030303	0.636364	-0.001590
0.030303	0.646465	-0.001559
0.030303	0.656566	-0.001527
0.030303	0.666667	-0.001493
0.030303	0.676768	-0.001458
0.030303	0.686869	-0.001422
0.030303	0.696970	-0.001386
0.030303	0.707071	-0.001350
0.030303	0.717172	-0.001315
0.030303	0.727273	-0.001280
0.030303	0.737374	-0.001246
0.030303	0.747475	-0.001214
0.030303	0.757576	-0.001185
0.030303	0.767677	-0.001158
0.030303	0.777778	-0.001135
0.030303	0.787879	-0.001116
0.030303	0.797980	-0.001102
0.030303	0.808081	-0.001095
0.030303	0.818182	-0.001095
0.030303	0.828283	-0.001104
0.030303	0.838384	-0.001125
0.030303	0.848485	-0.001161
0.030303	0.858586	-0.001213
0.030303	0.868687	-0.001288
0.030303	0.878788	-0.001391
0.030303	0.888889	-0.001528
0.030303	0.898990	-0.001709
0.030303	0.909091	-0.001945
0.030303	0.919192	-0.002250
0.030303	0.929293	-0.002640
0.030303	0.939394	-0.003131
0.030303	0.949495	-0.003737
0.030303	0.959596	-0.004452
0.030303	0.969697	-0.005201
0.030303	0.979798	-0.005689
0.030303	0.989899	-0.004934
0.030303	1.000000	0.000000
0.040404	0.000000	0.000000
0.040404	0.010101	0.000002
0.040404	0.020202	0.000005
0.040404	0.030303	0.000009
0.040404	0.040404	0.000012
0.040404	0.050505	0.000014
0.040404	0.060606	0.000013
0.040404	0.070707	0.000009
0.040404	0.080808	0.000002
0.040404	0.090909	-0.000009
0.040404	0.101010	-0.000024
0.040404	0.111111	-0.000043
0.040404	0.121212	-0.000067
0.040404	0.131313	-0.000097
0.040404	0.141414	-0.000131
0.040404	0.151515	-0.000170
0.040404	0.161616	-0.000214
0.040404	0.171717	-0.000264
0.040404	0.181818	-0.000319
0.040404	0.191919	-0.000379
0.040404	0.202020	-0.000445
0.040404	0.212121	-0.000515
0.040404	0.222222	-0.000590
0.040404	0.232323	-0.000669
0.040404	0.242424	-0.000753
0.040404	0.252525	-0.000841
0.040404	0.262626	-0.000932
0.040404	0.272727	-0.001027
0.040404	0.282828	-0.001124
0.040404	0.292929	-0.001224
0.040404	0.303030	-0.001325
0.040404	0.313131	-0.001428
0.040404	0.323232	-0.001532
0.040404	0.333333	-0.001636
0.040404	0.343434	-0.001739
0.040404	0.353535	-0.001841
0.040404	0.363636	-0.001943
0.040404	0.373737	-0.002041
0.040404	0.383838	-0.002138
0.040404	0.393939	-0.002231
0.040404	0.404040	-0.002321
0.040404	0.414141	-0.002406
0.040404	0.424242	-0.002487
0.040404	0.434343	-0.002563
0.040404	0.444444	-0.002633
0.040404	0.454545	-0.002698
0.040404	0.464646	-0.002757
0.040404	0.474747	-0.002809
0.040404	0.484848	-0.002855
0.040404	0.494949	-0.002894
0.040404	0.505050	-0.002926
0.040404	0.515152	-0.002951
0.040404	0.525253	-0.002969
0.040404	0.535354	-0.002981
0.040404	0.545455	-0.002985
0.040404	0.555556	-0.002983
0.040404	0.565657	-0.002974
0.040404	0.575758	-0.002959
0.040404	0.585859	-0.002938
0.040404	0.595960	-0.002912
0.040404	0.606061	-0.002880
0.040404	0.616162	-0.002843
0.040404	0.626263	-0.002801
0.040404	0.636364	-0.002755
0.040404	0.646465	-0.002706
0.040404	0.656566	-0.002653
0.040404	0.666667	-0.002598
0.040404	0.676768	-0.002541
0.040404	0.686869	-0.002482
0.040404	0.696970	-0.002422
0.040404	0.707071	-0.002362
0.040404	0.717172	-0.002302
0.040404	0.727273	-0.002244
0.040404	0.737374	-0.002187
0.040404	0.747475	-0.002133
0.040404	0.757576	-0.002083
0.040404	0.767677	-0.002036
0.040404	0.777778	-0.001996
0.040404	0.787879	-0.001962
0.040404	0.797980	-0.001937
0.040404	0.808081	-0.001922
0.040404	0.818182	-0.001919
0.040404	0.828283	-0.001931
0.040404	0.838384	-0.001961
0.040404	0.848485	-0.002013
0.040404	0.858586	-0.002092
0.040404	0.868687	-0.002205
0.040404	0.878788	-0.002359
0.040404	0.888889	-0.002564
0.040404	0.898990	-0.002831
0.040404	0.909091	-0.003173
0.040404	0.919192	-0.003606
0.040404	0.929293	-0.004144
0.040404	0.939394	-0.004798
0.040404	0.949495	-0.005562
0.040404	0.959596	-0.006390
0.040404	0.969697	-0.007126
0.040404	0.979798	-0.007332
0.040404	0.989899	-0.005855
0.040404	1.000000	0.000000
0.050505	0.000000	0.000000
0.050505	0.010101	0.000002
0.050505	0.020202	0.000006
0.050505	0.030303	0.000011
0.050505	0.040404	0.000014
0.050505	0.050505	0.000015
0.050505	0.060606	0.000012
0.050505	0.070707	0.000005
0.050505	0.080808	-0.000007
0.050505	0.090909	-0.000025
0.050505	0.101010	-0.000049
0.050505	0.111111	-0.000080
0.050505	0.121212	-0.000117
0.050505	0.131313	-0.000162
0.050505	0.141414	-0.000214
0.050505	0.151515	-0.000273
0.050505	0.161616	-0.000341
0.050505	0.171717	-0.000415
0.050505	0.181818	-0.000498
0.050505	0.191919	-0.000588
0.050505	0.202020	-0.000685
0.050505	0.212121	-0.000790
0.050505	0.222222	-0.000902
0.050505	0.232323	-0.001020
0.050505	0.242424	-0.001144
0.050505	0.252525	-0.001274
0.050505	0.262626	-0.001410
0.050505	0.272727	-0.001550
0.050505	0.282828	-0.001694
0.050505	0.292929	-0.001841
0.050505	0.303030	-0.001991
0.050505	0.313131	-0.002143
0.050505	0.323232	-0.002296
0.050505	0.333333	-0.002449
0.050505	0.343434	-0.002602
0.050505	0.353535	-0.002754
0.050505	0.363636	-0.002904
0.050505	0.373737	-0.003051
0.050505	0.383838	-0.003194
0.050505	0.393939	-0.003333
0.050505	0.404040	-0.003467
0.050505	0.414141	-0.003595
0.050505	0.424242	-0.003716
0.050505	0.434343	-0.003831
0.050505	0.444444	-0.003937
0.050505	0.454545	-0.004036
0.050505	0.464646	-0.004125
0.050505	0.474747	-0.004206
0.050505	0.484848	-0.004277
0.050505	0.494949	-0.004339
0.050505	0.505050	-0.004390
0.050505	0.515152	-0.004432
0.050505	0.525253	-0.004463
0.050505	0.535354	-0.004485
0.050505	0.545455	-0.004496
0.050505	0.555556	-0.004498
0.050505	0.565657	-0.004490
0.050505	0.575758	-0.004472
0.050505	0.585859	-0.004446
0.050505	0.595960	-0.004411
0.050505	0.606061	-0.004368
0.050505	0.616162	-0.004317
0.050505	0.626263	-0.004260
0.050505	0.636364	-0.004196
0.050505	0.646465	-0.004126
0.050505	0.656566	-0.004051
0.050505	0.666667	-0.003972
0.050505	0.676768	-0.003889
0.050505	0.686869	-0.003804
0.050505	0.696970	-0.003717
0.050505	0.707071	-0.003629
0.050505	0.717172	-0.003541
0.050505	0.727273	-0.003455
0.050505	0.737374	-0.003371
0.050505	0.747475	-0.003290
0.050505	0.757576	-0.003214
0.050505	0.767677	-0.003144
0.050505	0.777778	-0.003081
0.050505	0.787879	-0.003029
0.050505	0.797980	-0.002988
0.050505	0.808081	-0.002961
0.050505	0.818182	-0.002951
0.050505	0.828283	-0.002961
0.050505	0.838384	-0.002997
0.050505	0.848485	-0.003062
0.050505	0.858586	-0.003164
0.050505	0.868687	-0.003311
0.050505	0.878788	-0.003510
0.050505	0.888889	-0.003775
0.050505	0.898990	-0.004116
0.050505	0.909091	-0.004549
0.050505	0.919192	-0.005087
0.050505	0.929293	-0.005739
0.050505	0.939394	-0.006505
0.050505	0.949495	-0.007357
0.050505	0.959596	-0.008204
0.050505	0.969697	-0.008818
0.050505	0.979798	-0.008657
0.050505	0.989899	-0.006505
0.050505	1.000000	0.000000
0.060606	0.000000	0.000000
0.060606	0.010101	0.000002
0.060606	0.020202	0.000007
0.060606	0.030303	0.000012
0.060606	0.040404	0.000014
0.060606	0.050505	0.000013
0.060606	0.060606	0.000007
0.060606	0.070707	-0.000005
0.060606	0.080808	-0.000024
0.060606	0.090909	-0.000051
0.060606	0.101010	-0.000086
0.060606	0.111111	-0.000130
0.060606	0.121212	-0.000183
0.060606	0.131313	-0.000246
0.060606	0.141414	-0.000319
0.060606	0.151515	-0.000402
0.060606	0.161616	-0.000496
0.060606	0.171717	-0.000600
0.060606	0.181818	-0.000714
0.060606	0.191919	-0.000838
0.060606	0.202020	-0.000973
0.060606	0.212121	-0.001117
0.060606	0.222222	-0.001270
0.060606	0.232323	-0.001432
0.060606	0.242424	-0.001602
0.060606	0.252525	-0.001780
0.060606	0.262626	-0.001965
0.060606	0.272727	-0.002157
0.060606	0.282828	-0.002353
0.060606	0.292929	-0.002554
0.060606	0.303030	-0.002759
0.060606	0.313131	-0.002966
0.060606	0.323232	-0.003175
0.060606	0.333333	-0.003385
0.060606	0.343434	-0.003594
0.060606	0.353535	-0.003801
0.060606	0.363636	-0.004006
0.060606	0.373737	-0.004208
0.060606	0.383838	-0.004404
0.060606	0.393939	-0.004595
0.060606	0.404040	-0.004779
0.060606	0.414141	-0.004956
0.060606	0.424242	-0.005124
0.060606	0.434343	-0.005283
0.060606	0.444444	-0.005431
0.060606	0.454545	-0.005569
0.060606	0.464646	-0.005695
0.060606	0.474747	-0.005809
0.060606	0.484848	-0.005911
0.060606	0.494949	-0.006000
0.060606	0.505050	-0.006075
0.060606	0.515152	-0.006138
0.060606	0.525253	-0.006186
0.060606	0.535354	-0.006221
0.060606	0.545455	-0.006243
0.060606	0.555556	-0.006252
0.060606	0.565657	-0.006247
0.060606	0.575758	-0.006229
0.060606	0.585859	-0.006200
0.060606	0.595960	-0.006158
0.060606	0.606061	-0.006105
0.060606	0.616162	-0.006042
0.060606	0.626263	-0.005968
0.060606	0.636364	-0.005886
0.060606	0.646465	-0.005795
0.060606	0.656566	-0.005697
0.060606	0.666667	-0.005592
0.060606	0.676768	-0.005483
0.060606	0.686869	-0.005369
0.060606	0.696970	-0.005252
0.060606	0.707071	-0.005134
0.060606	0.717172	-0.005015
0.060606	0.727273	-0.004897
0.060606	0.737374	-0.004781
0.060606	0.747475	-0.004670
0.060606	0.757576	-0.004564
0.060606	0.767677	-0.004466
0.060606	0.777778	-0.004378
0.060606	0.787879	-0.004301
0.060606	0.797980	-0.004240
0.060606	0.808081	-0.004197
0.060606	0.818182	-0.004175
0.060606	0.828283	-0.004179
0.060606	0.838384	-0.004214
0.060606	0.848485	-0.004287
0.060606	0.858586	-0.004404
0.060606	0.868687	-0.004575
0.060606	0.878788	-0.004810
0.060606	0.888889	-0.005120
0.060606	0.898990	-0.005519
0.060606	0.909091	-0.006019
0.060606	0.919192	-0.006631
0.060606	0.929293	-0.007358
0.060606	0.939394	-0.008185
0.060606	0.949495	-0.009060
0.060606	0.959596	-0.009854
0.060606	0.969697	-0.010278
0.060606	0.979798	-0.009720
0.060606	0.989899	-0.006973
0.060606	1.000000	0.000000
0.070707	0.000000	0.000000
0.070707	0.010101	0.000003
0.070707	0.020202	0.000007
0.070707	0.030303	0.000011
0.070707	0.040404	0.000012
0.070707	0.050505	0.000008
0.070707	0.060606	-0.000003
0.070707	0.070707	-0.000021
0.070707	0.080808	-0.000048
0.070707	0.090909	-0.000086
0.070707	0.101010	-0.000134
0.070707	0.111111	-0.000194
0.070707	0.121212	-0.000265
0.070707	0.131313	-0.000349
0.070707	0.141414	-0.000446
0.070707	0.151515	-0.000556
0.070707	0.161616	-0.000680
0.070707	0.171717	-0.000816
0.070707	0.181818	-0.000966
0.070707	0.191919	-0.001128
0.070707	0.202020	-0.001303
0.070707	0.212121	-0.001491
0.070707	0.222222	-0.001690
0.070707	0.232323	-0.001901
0.070707	0.242424	-0.002122
0.070707	0.252525	-0.002352
0.070707	0.262626	-0.002592
0.070707	0.272727	-0.002839
0.070707	0.282828	-0.003093
0.070707	0.292929	-0.003353
0.070707	0.303030	-0.003618
0.070707	0.313131	-0.003886
0.070707	0.323232	-0.004156
0.070707	0.333333	-0.004427
0.070707	0.343434	-0.004697
0.070707	0.353535	-0.004966
0.070707	0.363636	-0.005231
0.070707	0.373737	-0.005492
0.070707	0.383838	-0.005747
0.070707	0.393939	-0.005995
0.070707	0.404040	-0.006234
0.070707	0.414141	-0.006465
0.070707	0.424242	-0.006684
0.070707	0.434343	-0.006892
0.070707	0.444444	-0.007088
0.070707	0.454545	-0.007270
0.070707	0.464646	-0.007437
0.070707	0.474747	-0.007590
0.070707	0.484848	-0.007726
0.070707	0.494949	-0.007847
0.070707	0.505050	-0.007951
0.070707	0.515152	-0.008038
0.070707	0.525253	-0.008108
0.070707	0.535354	-0.008160
0.070707	0.545455	-0.008196
0.070707	0.555556	-0.008214
0.070707	0.565657	-0.008216
0.070707	0.575758	-0.008201
0.070707	0.585859	-0.008170
0.070707	0.595960	-0.008124
0.070707	0.606061	-0.008063
0.070707	0.616162	-0.007988
0.070707	0.626263	-0.007900
0.070707	0.636364	-0.007800
0.070707	0.646465	-0.007688
0.070707	0.656566	-0.007567
0.070707	0.666667	-0.007437
0.070707	0.676768	-0.007300
0.070707	0.686869	-0.007156
0.070707	0.696970	-0.007008
0.070707	0.707071	-0.006857
0.070707	0.717172	-0.006705
0.070707	0.727273	-0.006553
0.070707	0.737374	-0.006404
0.070707	0.747475	-0.006258
0.070707	0.757576	-0.006119
0.070707	0.767677	-0.005989
0.070707	0.777778	-0.005870
0.070707	0.787879	-0.005766
0.070707	0.797980	-0.005679
0.070707	0.808081	-0.005614
0.070707	0.818182	-0.005574
0.070707	0.828283	-0.005565
0.070707	0.838384	-0.005593
0.070707	0.848485	-0.005664
0.070707	0.858586	-0.005788
0.070707	0.868687	-0.005972
0.070707	0.878788	-0.006228
0.070707	0.888889	-0.006567
0.070707	0.898990	-0.007003
0.070707	0.909091	-0.007544
0.070707	0.919192	-0.008199
0.070707	0.929293	-0.008961
0.070707	0.939394	-0.009803
0.070707	0.949495	-0.010651
0.070707	0.959596	-0.011339
0.070707	0.969697	-0.011531
0.070707	0.979798	-0.010580
0.070707	0.989899	-0.007319
0.070707	1.000000	0.000000
0.080808	0.000000	0.000000
0.080808	0.010101	0.000003
0.080808	0.020202	0.000007
0.080808	0.030303	0.000009
0.080808	0.040404	0.000008
0.080808	0.050505	-0.000001
0.080808	0.060606	-0.000017
0.080808	0.070707	-0.000043
0.080808	0.080808	-0.000081
0.080808	0.090909	-0.000131
0.080808	0.101010	-0.000194
0.080808	0.111111	-0.000272
0.080808	0.121212	-0.000364
0.080808	0.131313	-0.000472
0.080808	0.141414	-0.000595
0.080808	0.151515	-0.000735
0.080808	0.161616	-0.000891
0.080808	0.171717	-0.001063
0.080808	0.181818	-0.001252
0.080808	0.191919	-0.001456
0.080808	0.202020	-0.001675
0.080808	0.212121	-0.001910
0.080808	0.222222	-0.002159
0.080808	0.232323	-0.002422
0.080808	0.242424	-0.002697
0.080808	0.252525	-0.002985
0.080808	0.262626	-0.003283
0.080808	0.272727	-0.003590
0.080808	0.282828	-0.003906
0.080808	0.292929	-0.004229
0.080808	0.303030	-0.004558
0.080808	0.313131	-0.004891
0.080808	0.323232	-0.005226
0.080808	0.333333	-0.005563
0.080808	0.343434	-0.005898
0.080808	0.353535	-0.006232
0.080808	0.363636	-0.006562
0.080808	0.373737	-0.006887
0.080808	0.383838	-0.007205
0.080808	0.393939	-0.007514
0.080808	0.404040	-0.007814
0.080808	0.414141	-0.008102
0.080808	0.424242	-0.008377
0.080808	0.434343	-0.008639
0.080808	0.444444	-0.008885
0.080808	0.454545	-0.009115
0.080808	0.464646	-0.009328
0.080808	0.474747	-0.009523
0.080808	0.484848	-0.009699
0.080808	0.494949	-0.009855
0.080808	0.505050	-0.009991
0.080808	0.515152	-0.010106
0.080808	0.525253	-0.010201
0.080808	0.535354	-0.010274
0.080808	0.545455	-0.010327
0.080808	0.555556	-0.010358
0.080808	0.565657	-0.010369
0.080808	0.575758	-0.010360
0.080808	0.585859	-0.010331
0.080808	0.595960	-0.010282
0.080808	0.606061	-0.010215
0.080808	0.616162	-0.010131
0.080808	0.626263	-0.010030
0.080808	0.636364	-0.009913
0.080808	0.646465	-0.009782
0.080808	0.656566	-0.009639
0.080808	0.666667	-0.009484
0.080808	0.676768	-0.009318
0.080808	0.686869	-0.009145
0.080808	0.696970	-0.008965
0.080808	0.707071	-0.008780
0.080808	0.717172	-0.008593
0.080808	0.727273	-0.008405
0.080808	0.737374	-0.008219
0.080808	0.747475	-0.008037
0.080808	0.757576	-0.007862
0.080808	0.767677	-0.007696
0.080808	0.777778	-0.007543
0.080808	0.787879	-0.007406
0.080808	0.797980	-0.007289
0.080808	0.808081	-0.007196
0.080808	0.818182	-0.007133
0.080808	0.828283	-0.007104
0.080808	0.838384	-0.007116
0.080808	0.848485	-0.007177
0.080808	0.858586	-0.007294
0.080808	0.868687	-0.007479
0.080808	0.878788	-0.007741
0.080808	0.888889	-0.008091
0.080808	0.898990	-0.008541
0.080808	0.909091	-0.009098
0.080808	0.919192	-0.009765
0.080808	0.929293	-0.010528
0.080808	0.939394	-0.011347
0.080808	0.949495	-0.012125
0.080808	0.959596	-0.012670
0.080808	0.969697	-0.012612
0.080808	0.979798	-0.011283
0.080808	0.989899	-0.007581
0.080808	1.000000	0.000000
0.090909	0.000000	0.000000
0.090909	0.010101	0.000002
0.090909	0.020202	0.000005
0.090909	0.030303	0.000006
0.090909	0.040404	0.000001
0.090909	0.050505	-0.000013
0.090909	0.060606	-0.000036
0.090909	0.070707	-0.000072
0.090909	0.080808	-0.000121
0.090909	0.090909	-0.000185
0.090909	0.101010	-0.000266
0.090909	0.111111	-0.000364
0.090909	0.121212	-0.000479
0.090909	0.131313	-0.000613
0.090909	0.141414	-0.000766
0.090909	0.151515	-0.000938
0.090909	0.161616	-0.001129
0.090909	0.171717	-0.001340
0.090909	0.181818	-0.001570
0.090909	0.191919	-0.001819
0.090909	0.202020	-0.002086
0.090909	0.212121	-0.002372
0.090909	0.222222	-0.002674
0.090909	0.232323	-0.002992
0.090909	0.242424	-0.003325
0.090909	0.252525	-0.003673
0.090909	0.262626	-0.004033
0.090909	0.272727	-0.004404
0.090909	0.282828	-0.004786
0.090909	0.292929	-0.005175
0.090909	0.303030	-0.005572
0.090909	0.313131	-0.005973
0.090909	0.323232	-0.006377
0.090909	0.333333	-0.006783
0.090909	0.343434	-0.007187
0.090909	0.353535	-0.007590
0.090909	0.363636	-0.007988
0.090909	0.373737	-0.008380
0.090909	0.383838	-0.008764
0.090909	0.393939	-0.009139
0.090909	0.404040	-0.009502
0.090909	0.414141	-0.009851
0.090909	0.424242	-0.010186
0.090909	0.434343	-0.010505
0.090909	0.444444	-0.010805
0.090909	0.454545	-0.011087
0.090909	0.464646	-0.011349
0.090909	0.474747	-0.011589
0.090909	0.484848	-0.011807
0.090909	0.494949	-0.012002
0.090909	0.505050	-0.012173
0.090909	0.515152	-0.012320
0.090909	0.525253	-0.012443
0.090909	0.535354	-0.012540
0.090909	0.545455	-0.012613
0.090909	0.555556	-0.012660
0.090909	0.565657	-0.012683
0.090909	0.575758	-0.012682
0.090909	0.585859	-0.012657
0.090909	0.595960	-0.012609
0.090909	0.606061	-0.012538
0.090909	0.616162	-0.012446
0.090909	0.626263	-0.012334
0.090909	0.636364	-0.012203
0.090909	0.646465	-0.012054
0.090909	0.656566	-0.011889
0.090909	0.666667	-0.011709
0.090909	0.676768	-0.011517
0.090909	0.686869	-0.011314
0.090909	0.696970	-0.011102
0.090909	0.707071	-0.010883
0.090909	0.717172	-0.010660
0.090909	0.727273	-0.010435
0.090909	0.737374	-0.010210
0.090909	0.747475	-0.009990
0.090909	0.757576	-0.009775
0.090909	0.767677	-0.009571
0.090909	0.777778	-0.009380
0.090909	0.787879	-0.009206
0.090909	0.797980	-0.009054
0.090909	0.808081	-0.008928
0.090909	0.818182	-0.008833
0.090909	0.828283	-0.008777
0.090909	0.838384	-0.008765
0.090909	0.848485	-0.008805
0.090909	0.858586	-0.008906
0.090909	0.868687	-0.009077
0.090909	0.878788	-0.009329
0.090909	0.888889	-0.009672
0.090909	0.898990	-0.010115
0.090909	0.909091	-0.010664
0.090909	0.919192	-0.011316
0.090909	0.929293	-0.012050
0.090909	0.939394	-0.012812
0.090909	0.949495	-0.013491
0.090909	0.959596	-0.013868
0.090909	0.969697	-0.013549
0.090909	0.979798	-0.011866
0.090909	0.989899	-0.007786
0.090909	1.000000	0.000000
0.101010	0.000000	0.000000
0.101010	0.010101	0.000002
0.101010	0.020202	0.000004
0.101010	0.030303	0.000001
0.101010	0.040404	-0.000008
0.101010	0.050505	-0.000028
0.101010	0.060606	-0.000060
0.101010	0.070707	-0.000107
0.101010	0.080808	-0.000169
0.101010	0.090909	-0.000250
0.101010	0.101010	-0.000350
0.101010	0.111111	-0.000469
0.101010	0.121212	-0.000610
0.101010	0.131313	-0.000772
0.101010	0.141414	-0.000957
0.101010	0.151515	-0.001164
0.101010	0.161616	-0.001394
0.101010	0.171717	-0.001646
0.101010	0.181818	-0.001920
0.101010	0.191919	-0.002217
0.101010	0.202020	-0.002535
0.101010	0.212121	-0.002873
0.101010	0.222222	-0.003231
0.101010	0.232323	-0.003608
0.101010	0.242424	-0.004003
0.101010	0.252525	-0.004413
0.101010	0.262626	-0.004838
0.101010	0.272727	-0.005277
0.101010	0.282828	-0.005726
0.101010	0.292929	-0.006186
0.101010	0.303030	-0.006653
0.101010	0.313131	-0.007125
0.101010	0.323232	-0.007601
0.101010	0.333333	-0.008079
0.101010	0.343434	-0.008556
0.101010	0.353535	-0.009030
0.101010	0.363636	-0.009500
0.101010	0.373737	-0.009962