VARIABLES="x","y","U"
ZONE T="BLOCK1",i=100,j=100,F=POINT

0.000000	0.000000	0.000000
0.000000	0.010101	0.000000
0.000000	0.020202	0.000000
0.000000	0.030303	0.000000
0.000000	0.040404	0.000000
0.000000	0.050505	0.000000
0.000000	0.060606	0.000000
0.000000	0.070707	0.000000
0.000000	0.080808	0.000000
0.000000	0.090909	0.000000
0.000000	0.101010	0.000000
0.000000	0.111111	0.000000
0.000000	0.121212	0.000000
0.000000	0.131313	0.000000
0.000000	0.141414	0.000000
0.000000	0.151515	0.000000
0.000000	0.161616	0.000000
0.000000	0.171717	0.000000
0.000000	0.181818	0.000000
0.000000	0.191919	0.000000
0.000000	0.202020	0.000000
0.000000	0.212121	0.000000
0.000000	0.222222	0.000000
0.000000	0.232323	0.000000
0.000000	0.242424	0.000000
0.000000	0.252525	0.000000
0.000000	0.262626	0.000000
0.000000	0.272727	0.000000
0.000000	0.282828	0.000000
0.000000	0.292929	0.000000
0.000000	0.303030	0.000000
0.000000	0.313131	0.000000
0.000000	0.323232	0.000000
0.000000	0.333333	0.000000
0.000000	0.343434	0.000000
0.000000	0.353535	0.000000
0.000000	0.363636	0.000000
0.000000	0.373737	0.000000
0.000000	0.383838	0.000000
0.000000	0.393939	0.000000
0.000000	0.404040	0.000000
0.000000	0.414141	0.000000
0.000000	0.424242	0.000000
0.000000	0.434343	0.000000
0.000000	0.444444	0.000000
0.000000	0.454545	0.000000
0.000000	0.464646	0.000000
0.000000	0.474747	0.000000
0.000000	0.484848	0.000000
0.000000	0.494949	0.000000
0.000000	0.505050	0.000000
0.000000	0.515152	0.000000
0.000000	0.525253	0.000000
0.000000	0.535354	0.000000
0.000000	0.545455	0.000000
0.000000	0.555556	0.000000
0.000000	0.565657	0.000000
0.000000	0.575758	0.000000
0.000000	0.585859	0.000000
0.000000	0.595960	0.000000
0.000000	0.606061	0.000000
0.000000	0.616162	0.000000
0.000000	0.626263	0.000000
0.000000	0.636364	0.000000
0.000000	0.646465	0.000000
0.000000	0.656566	0.000000
0.000000	0.666667	0.000000
0.000000	0.676768	0.000000
0.000000	0.686869	0.000000
0.000000	0.696970	0.000000
0.000000	0.707071	0.000000
0.000000	0.717172	0.000000
0.000000	0.727273	0.000000
0.000000	0.737374	0.000000
0.000000	0.747475	0.000000
0.000000	0.757576	0.000000
0.000000	0.767677	0.000000
0.000000	0.777778	0.000000
0.000000	0.787879	0.000000
0.000000	0.797980	0.000000
0.000000	0.808081	0.000000
0.000000	0.818182	0.000000
0.000000	0.828283	0.000000
0.000000	0.838384	0.000000
0.000000	0.848485	0.000000
0.000000	0.858586	0.000000
0.000000	0.868687	0.000000
0.000000	0.878788	0.000000
0.000000	0.888889	0.000000
0.000000	0.898990	0.000000
0.000000	0.909091	0.000000
0.000000	0.919192	0.000000
0.000000	0.929293	0.000000
0.000000	0.939394	0.000000
0.000000	0.949495	0.000000
0.000000	0.959596	0.000000
0.000000	0.969697	0.000000
0.000000	0.979798	0.000000
0.000000	0.989899	0.000000
0.000000	1.000000	0.000000
0.010101	0.000000	0.000000
0.010101	0.010101	0.000028
0.010101	0.020202	0.000050
0.010101	0.030303	0.000056
0.010101	0.040404	0.000051
0.010101	0.050505	0.000037
0.010101	0.060606	0.000017
0.010101	0.070707	-0.000007
0.010101	0.080808	-0.000035
0.010101	0.090909	-0.000066
0.010101	0.101010	-0.000099
0.010101	0.111111	-0.000135
0.010101	0.121212	-0.000172
0.010101	0.131313	-0.000210
0.010101	0.141414	-0.000249
0.010101	0.151515	-0.000290
0.010101	0.161616	-0.000331
0.010101	0.171717	-0.000373
0.010101	0.181818	-0.000414
0.010101	0.191919	-0.000455
0.010101	0.202020	-0.000495
0.010101	0.212121	-0.000534
0.010101	0.222222	-0.000572
0.010101	0.232323	-0.000608
0.010101	0.242424	-0.000641
0.010101	0.252525	-0.000671
0.010101	0.262626	-0.000699
0.010101	0.272727	-0.000723
0.010101	0.282828	-0.000743
0.010101	0.292929	-0.000760
0.010101	0.303030	-0.000772
0.010101	0.313131	-0.000779
0.010101	0.323232	-0.000782
0.010101	0.333333	-0.000780
0.010101	0.343434	-0.000773
0.010101	0.353535	-0.000761
0.010101	0.363636	-0.000744
0.010101	0.373737	-0.000723
0.010101	0.383838	-0.000697
0.010101	0.393939	-0.000667
0.010101	0.404040	-0.000632
0.010101	0.414141	-0.000594
0.010101	0.424242	-0.000552
0.010101	0.434343	-0.000507
0.010101	0.444444	-0.000459
0.010101	0.454545	-0.000409
0.010101	0.464646	-0.000357
0.010101	0.474747	-0.000304
0.010101	0.484848	-0.000249
0.010101	0.494949	-0.000194
0.010101	0.505050	-0.000139
0.010101	0.515152	-0.000084
0.010101	0.525253	-0.000030
0.010101	0.535354	0.000023
0.010101	0.545455	0.000075
0.010101	0.555556	0.000124
0.010101	0.565657	0.000171
0.010101	0.575758	0.000216
0.010101	0.585859	0.000257
0.010101	0.595960	0.000296
0.010101	0.606061	0.000331
0.010101	0.616162	0.000362
0.010101	0.626263	0.000390
0.010101	0.636364	0.000414
0.010101	0.646465	0.000433
0.010101	0.656566	0.000449
0.010101	0.666667	0.000460
0.010101	0.676768	0.000467
0.010101	0.686869	0.000469
0.010101	0.696970	0.000466
0.010101	0.707071	0.000459
0.010101	0.717172	0.000447
0.010101	0.727273	0.000430
0.010101	0.737374	0.000407
0.010101	0.747475	0.000378
0.010101	0.757576	0.000343
0.010101	0.767677	0.000299
0.010101	0.777778	0.000247
0.010101	0.787879	0.000184
0.010101	0.797980	0.000108
0.010101	0.808081	0.000015
0.010101	0.818182	-0.000100
0.010101	0.828283	-0.000242
0.010101	0.838384	-0.000420
0.010101	0.848485	-0.000648
0.010101	0.858586	-0.000940
0.010101	0.868687	-0.001320
0.010101	0.878788	-0.001819
0.010101	0.888889	-0.002480
0.010101	0.898990	-0.003366
0.010101	0.909091	-0.004570
0.010101	0.919192	-0.006239
0.010101	0.929293	-0.008611
0.010101	0.939394	-0.012102
0.010101	0.949495	-0.017411
0.010101	0.959596	-0.025471
0.010101	0.969697	-0.035867
0.010101	0.979798	-0.035330
0.010101	0.989899	0.077309
0.010101	1.000000	0.000000
0.020202	0.000000	0.000000
0.020202	0.010101	0.000094
0.020202	0.020202	0.000149
0.020202	0.030303	0.000160
0.020202	0.040404	0.000136
0.020202	0.050505	0.000085
0.020202	0.060606	0.000012
0.020202	0.070707	-0.000077
0.020202	0.080808	-0.000179
0.020202	0.090909	-0.000292
0.020202	0.101010	-0.000413
0.020202	0.111111	-0.000542
0.020202	0.121212	-0.000677
0.020202	0.131313	-0.000818
0.020202	0.141414	-0.000962
0.020202	0.151515	-0.001110
0.020202	0.161616	-0.001260
0.020202	0.171717	-0.001410
0.020202	0.181818	-0.001561
0.020202	0.191919	-0.001709
0.020202	0.202020	-0.001854
0.020202	0.212121	-0.001995
0.020202	0.222222	-0.002131
0.020202	0.232323	-0.002259
0.020202	0.242424	-0.002379
0.020202	0.252525	-0.002489
0.020202	0.262626	-0.002588
0.020202	0.272727	-0.002675
0.020202	0.282828	-0.002748
0.020202	0.292929	-0.002807
0.020202	0.303030	-0.002851
0.020202	0.313131	-0.002879
0.020202	0.323232	-0.002891
0.020202	0.333333	-0.002885
0.020202	0.343434	-0.002863
0.020202	0.353535	-0.002824
0.020202	0.363636	-0.002767
0.020202	0.373737	-0.002694
0.020202	0.383838	-0.002604
0.020202	0.393939	-0.002499
0.020202	0.404040	-0.002379
0.020202	0.414141	-0.002246
0.020202	0.424242	-0.002099
0.020202	0.434343	-0.001941
0.020202	0.444444	-0.001772
0.020202	0.454545	-0.001594
0.020202	0.464646	-0.001409
0.020202	0.474747	-0.001218
0.020202	0.484848	-0.001023
0.020202	0.494949	-0.000824
0.020202	0.505050	-0.000624
0.020202	0.515152	-0.000425
0.020202	0.525253	-0.000227
0.020202	0.535354	-0.000033
0.020202	0.545455	0.000157
0.020202	0.555556	0.000341
0.020202	0.565657	0.000517
0.020202	0.575758	0.000685
0.020202	0.585859	0.000843
0.020202	0.595960	0.000991
0.020202	0.606061	0.001126
0.020202	0.616162	0.001250
0.020202	0.626263	0.001359
0.020202	0.636364	0.001455
0.020202	0.646465	0.001537
0.020202	0.656566	0.001603
0.020202	0.666667	0.001653
0.020202	0.676768	0.001688
0.020202	0.686869	0.001705
0.020202	0.696970	0.001705
0.020202	0.707071	0.001688
0.020202	0.717172	0.001652
0.020202	0.727273	0.001596
0.020202	0.737374	0.001518
0.020202	0.747475	0.001418
0.020202	0.757576	0.001292
0.020202	0.767677	0.001137
0.020202	0.777778	0.000948
0.020202	0.787879	0.000719
0.020202	0.797980	0.000441
0.020202	0.808081	0.000103
0.020202	0.818182	-0.000311
0.020202	0.828283	-0.000822
0.020202	0.838384	-0.001457
0.020202	0.848485	-0.002254
0.020202	0.858586	-0.003262
0.020202	0.868687	-0.004547
0.020202	0.878788	-0.006194
0.020202	0.888889	-0.008320
0.020202	0.898990	-0.011074
0.020202	0.909091	-0.014659
0.020202	0.919192	-0.019347
0.020202	0.929293	-0.025492
0.020202	0.939394	-0.033510
0.020202	0.949495	-0.043638
0.020202	0.959596	-0.054782
0.020202	0.969697	-0.059691
0.020202	0.979798	-0.025286
0.020202	0.989899	0.183801
0.020202	1.000000	0.000000
0.030303	0.000000	0.000000
0.030303	0.010101	0.000176
0.030303	0.020202	0.000262
0.030303	0.030303	0.000268
0.030303	0.040404	0.000209
0.030303	0.050505	0.000097
0.030303	0.060606	-0.000057
0.030303	0.070707	-0.000244
0.030303	0.080808	-0.000458
0.030303	0.090909	-0.000694
0.030303	0.101010	-0.000950
0.030303	0.111111	-0.001220
0.030303	0.121212	-0.001504
0.030303	0.131313	-0.001799
0.030303	0.141414	-0.002102
0.030303	0.151515	-0.002411
0.030303	0.161616	-0.002724
0.030303	0.171717	-0.003038
0.030303	0.181818	-0.003350
0.030303	0.191919	-0.003659
0.030303	0.202020	-0.003960
0.030303	0.212121	-0.004253
0.030303	0.222222	-0.004533
0.030303	0.232323	-0.004798
0.030303	0.242424	-0.005046
0.030303	0.252525	-0.005274
0.030303	0.262626	-0.005478
0.030303	0.272727	-0.005658
0.030303	0.282828	-0.005811
0.030303	0.292929	-0.005934
0.030303	0.303030	-0.006026
0.030303	0.313131	-0.006087
0.030303	0.323232	-0.006114
0.030303	0.333333	-0.006106
0.030303	0.343434	-0.006065
0.030303	0.353535	-0.005988
0.030303	0.363636	-0.005877
0.030303	0.373737	-0.005731
0.030303	0.383838	-0.005553
0.030303	0.393939	-0.005343
0.030303	0.404040	-0.005102
0.030303	0.414141	-0.004832
0.030303	0.424242	-0.004535
0.030303	0.434343	-0.004214
0.030303	0.444444	-0.003872
0.030303	0.454545	-0.003509
0.030303	0.464646	-0.003131
0.030303	0.474747	-0.002739
0.030303	0.484848	-0.002336
0.030303	0.494949	-0.001926
0.030303	0.505050	-0.001512
0.030303	0.515152	-0.001097
0.030303	0.525253	-0.000684
0.030303	0.535354	-0.000276
0.030303	0.545455	0.000125
0.030303	0.555556	0.000514
0.030303	0.565657	0.000890
0.030303	0.575758	0.001249
0.030303	0.585859	0.001591
0.030303	0.595960	0.001911
0.030303	0.606061	0.002208
0.030303	0.616162	0.002480
0.030303	0.626263	0.002726
0.030303	0.636364	0.002943
0.030303	0.646465	0.003130
0.030303	0.656566	0.003286
0.030303	0.666667	0.003409
0.030303	0.676768	0.003499
0.030303	0.686869	0.003553
0.030303	0.696970	0.003571
0.030303	0.707071	0.003550
0.030303	0.717172	0.003490
0.030303	0.727273	0.003387
0.030303	0.737374	0.003239
0.030303	0.747475	0.003041
0.030303	0.757576	0.002788
0.030303	0.767677	0.002474
0.030303	0.777778	0.002089
0.030303	0.787879	0.001620
0.030303	0.797980	0.001050
0.030303	0.808081	0.000359
0.030303	0.818182	-0.000483
0.030303	0.828283	-0.001515
0.030303	0.838384	-0.002786
0.030303	0.848485	-0.004362
0.030303	0.858586	-0.006326
0.030303	0.868687	-0.008785
0.030303	0.878788	-0.011875
0.030303	0.888889	-0.015763
0.030303	0.898990	-0.020650
0.030303	0.909091	-0.026768
0.030303	0.919192	-0.034356
0.030303	0.929293	-0.043584
0.030303	0.939394	-0.054316
0.030303	0.949495	-0.065396
0.030303	0.959596	-0.072471
0.030303	0.969697	-0.061255
0.030303	0.979798	0.013235
0.030303	0.989899	0.281619
0.030303	1.000000	0.000000
0.040404	0.000000	0.000000
0.040404	0.010101	0.000254
0.040404	0.020202	0.000362
0.040404	0.030303	0.000348
0.040404	0.040404	0.000235
0.040404	0.050505	0.000041
0.040404	0.060606	-0.000218
0.040404	0.070707	-0.000532
0.040404	0.080808	-0.000891
0.040404	0.090909	-0.001286
0.040404	0.101010	-0.001712
0.040404	0.111111	-0.002164
0.040404	0.121212	-0.002638
0.040404	0.131313	-0.003128
0.040404	0.141414	-0.003632
0.040404	0.151515	-0.004146
0.040404	0.161616	-0.004664
0.040404	0.171717	-0.005184
0.040404	0.181818	-0.005701
0.040404	0.191919	-0.006210
0.040404	0.202020	-0.006708
0.040404	0.212121	-0.007190
0.040404	0.222222	-0.007651
0.040404	0.232323	-0.008087
0.040404	0.242424	-0.008494
0.040404	0.252525	-0.008868
0.040404	0.262626	-0.009205
0.040404	0.272727	-0.009501
0.040404	0.282828	-0.009752
0.040404	0.292929	-0.009957
0.040404	0.303030	-0.010111
0.040404	0.313131	-0.010214
0.040404	0.323232	-0.010263
0.040404	0.333333	-0.010256
0.040404	0.343434	-0.010194
0.040404	0.353535	-0.010075
0.040404	0.363636	-0.009901
0.040404	0.373737	-0.009672
0.040404	0.383838	-0.009389
0.040404	0.393939	-0.009053
0.040404	0.404040	-0.008668
0.040404	0.414141	-0.008236
0.040404	0.424242	-0.007759
0.040404	0.434343	-0.007242
0.040404	0.444444	-0.006688
0.040404	0.454545	-0.006102
0.040404	0.464646	-0.005487
0.040404	0.474747	-0.004848
0.040404	0.484848	-0.004190
0.040404	0.494949	-0.003518
0.040404	0.505050	-0.002837
0.040404	0.515152	-0.002152
0.040404	0.525253	-0.001468
0.040404	0.535354	-0.000789
0.040404	0.545455	-0.000120
0.040404	0.555556	0.000533
0.040404	0.565657	0.001167
0.040404	0.575758	0.001777
0.040404	0.585859	0.002358
0.040404	0.595960	0.002907
0.040404	0.606061	0.003421
0.040404	0.616162	0.003896
0.040404	0.626263	0.004327
0.040404	0.636364	0.004714
0.040404	0.646465	0.005052
0.040404	0.656566	0.005339
0.040404	0.666667	0.005573
0.040404	0.676768	0.005750
0.040404	0.686869	0.005870
0.040404	0.696970	0.005928
0.040404	0.707071	0.005922
0.040404	0.717172	0.005849
0.040404	0.727273	0.005705
0.040404	0.737374	0.005483
0.040404	0.747475	0.005179
0.040404	0.757576	0.004783
0.040404	0.767677	0.004284
0.040404	0.777778	0.003668
0.040404	0.787879	0.002916
0.040404	0.797980	0.002003
0.040404	0.808081	0.000897
0.040404	0.818182	-0.000445
0.040404	0.828283	-0.002077
0.040404	0.838384	-0.004069
0.040404	0.848485	-0.006509
0.040404	0.858586	-0.009507
0.040404	0.868687	-0.013200
0.040404	0.878788	-0.017748
0.040404	0.888889	-0.023337
0.040404	0.898990	-0.030159
0.040404	0.909091	-0.038385
0.040404	0.919192	-0.048077
0.040404	0.929293	-0.059005
0.040404	0.939394	-0.070192
0.040404	0.949495	-0.078820
0.040404	0.959596	-0.077422
0.040404	0.969697	-0.046609
0.040404	0.979798	0.062949
0.040404	0.989899	0.362931
0.040404	1.000000	0.000000
0.050505	0.000000	0.000000
0.050505	0.010101	0.000315
0.050505	0.020202	0.000429
0.050505	0.030303	0.000379
0.050505	0.040404	0.000193
0.050505	0.050505	-0.000104
0.050505	0.060606	-0.000494
0.050505	0.070707	-0.000959
0.050505	0.080808	-0.001489
0.050505	0.090909	-0.002072
0.050505	0.101010	-0.002700
0.050505	0.111111	-0.003365
0.050505	0.121212	-0.004061
0.050505	0.131313	-0.004781
0.050505	0.141414	-0.005520
0.050505	0.151515	-0.006271
0.050505	0.161616	-0.007029
0.050505	0.171717	-0.007787
0.050505	0.181818	-0.008540
0.050505	0.191919	-0.009282
0.050505	0.202020	-0.010005
0.050505	0.212121	-0.010705
0.050505	0.222222	-0.011374
0.050505	0.232323	-0.012006
0.050505	0.242424	-0.012596
0.050505	0.252525	-0.013138
0.050505	0.262626	-0.013626
0.050505	0.272727	-0.014055
0.050505	0.282828	-0.014421
0.050505	0.292929	-0.014719
0.050505	0.303030	-0.014946
0.050505	0.313131	-0.015099
0.050505	0.323232	-0.015175
0.050505	0.333333	-0.015173
0.050505	0.343434	-0.015092
0.050505	0.353535	-0.014930
0.050505	0.363636	-0.014689
0.050505	0.373737	-0.014369
0.050505	0.383838	-0.013972
0.050505	0.393939	-0.013500
0.050505	0.404040	-0.012957
0.050505	0.414141	-0.012345
0.050505	0.424242	-0.011670
0.050505	0.434343	-0.010935
0.050505	0.444444	-0.010146
0.050505	0.454545	-0.009309
0.050505	0.464646	-0.008429
0.050505	0.474747	-0.007513
0.050505	0.484848	-0.006566
0.050505	0.494949	-0.005597
0.050505	0.505050	-0.004612
0.050505	0.515152	-0.003617
0.050505	0.525253	-0.002619
0.050505	0.535354	-0.001627
0.050505	0.545455	-0.000645
0.050505	0.555556	0.000318
0.050505	0.565657	0.001256
0.050505	0.575758	0.002164
0.050505	0.585859	0.003034
0.050505	0.595960	0.003861
0.050505	0.606061	0.004639
0.050505	0.616162	0.005363
0.050505	0.626263	0.006028
0.050505	0.636364	0.006630
0.050505	0.646465	0.007162
0.050505	0.656566	0.007623
0.050505	0.666667	0.008006
0.050505	0.676768	0.008309
0.050505	0.686869	0.008527
0.050505	0.696970	0.008655
0.050505	0.707071	0.008690
0.050505	0.717172	0.008625
0.050505	0.727273	0.008456
0.050505	0.737374	0.008174
0.050505	0.747475	0.007769
0.050505	0.757576	0.007231
0.050505	0.767677	0.006544
0.050505	0.777778	0.005689
0.050505	0.787879	0.004641
0.050505	0.797980	0.003367
0.050505	0.808081	0.001826
0.050505	0.818182	-0.000035
0.050505	0.828283	-0.002282
0.050505	0.838384	-0.005000
0.050505	0.848485	-0.008292
0.050505	0.858586	-0.012284
0.050505	0.868687	-0.017123
0.050505	0.878788	-0.022972
0.050505	0.888889	-0.029999
0.050505	0.898990	-0.038341
0.050505	0.909091	-0.048042
0.050505	0.919192	-0.058904
0.050505	0.929293	-0.070202
0.050505	0.939394	-0.080060
0.050505	0.949495	-0.084098
0.050505	0.959596	-0.072358
0.050505	0.969697	-0.022413
0.050505	0.979798	0.114497
0.050505	0.989899	0.428513
0.050505	1.000000	0.000000
0.060606	0.000000	0.000000
0.060606	0.010101	0.000352
0.060606	0.020202	0.000451
0.060606	0.030303	0.000344
0.060606	0.040404	0.000065
0.060606	0.050505	-0.000356
0.060606	0.060606	-0.000896
0.060606	0.070707	-0.001536
0.060606	0.080808	-0.002260
0.060606	0.090909	-0.003055
0.060606	0.101010	-0.003909
0.060606	0.111111	-0.004813
0.060606	0.121212	-0.005758
0.060606	0.131313	-0.006734
0.060606	0.141414	-0.007733
0.060606	0.151515	-0.008749
0.060606	0.161616	-0.009772
0.060606	0.171717	-0.010794
0.060606	0.181818	-0.011807
0.060606	0.191919	-0.012804
0.060606	0.202020	-0.013775
0.060606	0.212121	-0.014713
0.060606	0.222222	-0.015609
0.060606	0.232323	-0.016456
0.060606	0.242424	-0.017245
0.060606	0.252525	-0.017970
0.060606	0.262626	-0.018623
0.060606	0.272727	-0.019198
0.060606	0.282828	-0.019689
0.060606	0.292929	-0.020090
0.060606	0.303030	-0.020398
0.060606	0.313131	-0.020607
0.060606	0.323232	-0.020716
0.060606	0.333333	-0.020721
0.060606	0.343434	-0.020622
0.060606	0.353535	-0.020417
0.060606	0.363636	-0.020107
0.060606	0.373737	-0.019694
0.060606	0.383838	-0.019179
0.060606	0.393939	-0.018565
0.060606	0.404040	-0.017856
0.060606	0.414141	-0.017056
0.060606	0.424242	-0.016171
0.060606	0.434343	-0.015206
0.060606	0.444444	-0.014168
0.060606	0.454545	-0.013064
0.060606	0.464646	-0.011901
0.060606	0.474747	-0.010687
0.060606	0.484848	-0.009431
0.060606	0.494949	-0.008141
0.060606	0.505050	-0.006825
0.060606	0.515152	-0.005493
0.060606	0.525253	-0.004154
0.060606	0.535354	-0.002816
0.060606	0.545455	-0.001490
0.060606	0.555556	-0.000182
0.060606	0.565657	0.001097
0.060606	0.575758	0.002339
0.060606	0.585859	0.003537
0.060606	0.595960	0.004681
0.060606	0.606061	0.005764
0.060606	0.616162	0.006779
0.060606	0.626263	0.007719
0.060606	0.636364	0.008576
0.060606	0.646465	0.009345
0.060606	0.656566	0.010019
0.060606	0.666667	0.010592
0.060606	0.676768	0.011057
0.060606	0.686869	0.011410
0.060606	0.696970	0.011643
0.060606	0.707071	0.011750
0.060606	0.717172	0.011724
0.060606	0.727273	0.011556
0.060606	0.737374	0.011237
0.060606	0.747475	0.010753
0.060606	0.757576	0.010091
0.060606	0.767677	0.009231
0.060606	0.777778	0.008150
0.060606	0.787879	0.006818
0.060606	0.797980	0.005196
0.060606	0.808081	0.003238
0.060606	0.818182	0.000882
0.060606	0.828283	-0.001946
0.060606	0.838384	-0.005338
0.060606	0.848485	-0.009404
0.060606	0.858586	-0.014271
0.060606	0.868687	-0.020084
0.060606	0.878788	-0.026989
0.060606	0.888889	-0.035111
0.060606	0.898990	-0.044504
0.060606	0.909091	-0.055048
0.060606	0.919192	-0.066258
0.060606	0.929293	-0.076904
0.060606	0.939394	-0.084268
0.060606	0.949495	-0.082645
0.060606	0.959596	-0.060282
0.060606	0.969697	0.006628
0.060606	0.979798	0.163573
0.060606	0.989899	0.481156
0.060606	1.000000	0.000000
0.070707	0.000000	0.000000
0.070707	0.010101	0.000358
0.070707	0.020202	0.000419
0.070707	0.030303	0.000233
0.070707	0.040404	-0.000158
0.070707	0.050505	-0.000723
0.070707	0.060606	-0.001433
0.070707	0.070707	-0.002268
0.070707	0.080808	-0.003206
0.070707	0.090909	-0.004234
0.070707	0.101010	-0.005336
0.070707	0.111111	-0.006499
0.070707	0.121212	-0.007713
0.070707	0.131313	-0.008966
0.070707	0.141414	-0.010247
0.070707	0.151515	-0.011547
0.070707	0.161616	-0.012854
0.070707	0.171717	-0.014158
0.070707	0.181818	-0.015450
0.070707	0.191919	-0.016719
0.070707	0.202020	-0.017954
0.070707	0.212121	-0.019145
0.070707	0.222222	-0.020282
0.070707	0.232323	-0.021355
0.070707	0.242424	-0.022356
0.070707	0.252525	-0.023274
0.070707	0.262626	-0.024101
0.070707	0.272727	-0.024830
0.070707	0.282828	-0.025453
0.070707	0.292929	-0.025964
0.070707	0.303030	-0.026357
0.070707	0.313131	-0.026627
0.070707	0.323232	-0.026771
0.070707	0.333333	-0.026786
0.070707	0.343434	-0.026670
0.070707	0.353535	-0.026423
0.070707	0.363636	-0.026045
0.070707	0.373737	-0.025537
0.070707	0.383838	-0.024902
0.070707	0.393939	-0.024143
0.070707	0.404040	-0.023264
0.070707	0.414141	-0.022272
0.070707	0.424242	-0.021171
0.070707	0.434343	-0.019969
0.070707	0.444444	-0.018674
0.070707	0.454545	-0.017294
0.070707	0.464646	-0.015838
0.070707	0.474747	-0.014316
0.070707	0.484848	-0.012736
0.070707	0.494949	-0.011111
0.070707	0.505050	-0.009450
0.070707	0.515152	-0.007764
0.070707	0.525253	-0.006063
0.070707	0.535354	-0.004360
0.070707	0.545455	-0.002665
0.070707	0.555556	-0.000990
0.070707	0.565657	0.000656
0.070707	0.575758	0.002261
0.070707	0.585859	0.003815
0.070707	0.595960	0.005308
0.070707	0.606061	0.006728
0.070707	0.616162	0.008068
0.070707	0.626263	0.009318
0.070707	0.636364	0.010467
0.070707	0.646465	0.011509
0.070707	0.656566	0.012434
0.070707	0.666667	0.013233
0.070707	0.676768	0.013900
0.070707	0.686869	0.014424
0.070707	0.696970	0.014799
0.070707	0.707071	0.015015
0.070707	0.717172	0.015062
0.070707	0.727273	0.014930
0.070707	0.737374	0.014606
0.070707	0.747475	0.014075
0.070707	0.757576	0.013320
0.070707	0.767677	0.012319
0.070707	0.777778	0.011044
0.070707	0.787879	0.009462
0.070707	0.797980	0.007531
0.070707	0.808081	0.005199
0.070707	0.818182	0.002403
0.070707	0.828283	-0.000936
0.070707	0.838384	-0.004910
0.070707	0.848485	-0.009629
0.070707	0.858586	-0.015213
0.070707	0.868687	-0.021792
0.070707	0.878788	-0.029481
0.070707	0.888889	-0.038351
0.070707	0.898990	-0.048355
0.070707	0.909091	-0.059206
0.070707	0.919192	-0.070129
0.070707	0.929293	-0.079425
0.070707	0.939394	-0.083638
0.070707	0.949495	-0.076007
0.070707	0.959596	-0.043602
0.070707	0.969697	0.037571
0.070707	0.979798	0.208531
0.070707	0.989899	0.523693
0.070707	1.000000	0.000000
0.080808	0.000000	0.000000
0.080808	0.010101	0.000331
0.080808	0.020202	0.000327
0.080808	0.030303	0.000041
0.080808	0.040404	-0.000484
0.080808	0.050505	-0.001211
0.080808	0.060606	-0.002111
0.080808	0.070707	-0.003157
0.080808	0.080808	-0.004329
0.080808	0.090909	-0.005607
0.080808	0.101010	-0.006973
0.080808	0.111111	-0.008414
0.080808	0.121212	-0.009914
0.080808	0.131313	-0.011459
0.080808	0.141414	-0.013038
0.080808	0.151515	-0.014637
0.080808	0.161616	-0.016243
0.080808	0.171717	-0.017844
0.080808	0.181818	-0.019427
0.080808	0.191919	-0.020980
0.080808	0.202020	-0.022490
0.080808	0.212121	-0.023944
0.080808	0.222222	-0.025332
0.080808	0.232323	-0.026640
0.080808	0.242424	-0.027859
0.080808	0.252525	-0.028977
0.080808	0.262626	-0.029985
0.080808	0.272727	-0.030872
0.080808	0.282828	-0.031632
0.080808	0.292929	-0.032255
0.080808	0.303030	-0.032736
0.080808	0.313131	-0.033069
0.080808	0.323232	-0.033251
0.080808	0.333333	-0.033276
0.080808	0.343434	-0.033145
0.080808	0.353535	-0.032855
0.080808	0.363636	-0.032408
0.080808	0.373737	-0.031805
0.080808	0.383838	-0.031049
0.080808	0.393939	-0.030143
0.080808	0.404040	-0.029093
0.080808	0.414141	-0.027905
0.080808	0.424242	-0.026586
0.080808	0.434343	-0.025144
0.080808	0.444444	-0.023588
0.080808	0.454545	-0.021928
0.080808	0.464646	-0.020174
0.080808	0.474747	-0.018336
0.080808	0.484848	-0.016427
0.080808	0.494949	-0.014459
0.080808	0.505050	-0.012443
0.080808	0.515152	-0.010393
0.080808	0.525253	-0.008321
0.080808	0.535354	-0.006240
0.080808	0.545455	-0.004163
0.080808	0.555556	-0.002103
0.080808	0.565657	-0.000073
0.080808	0.575758	0.001914
0.080808	0.585859	0.003846
0.080808	0.595960	0.005709
0.080808	0.606061	0.007492
0.080808	0.616162	0.009183
0.080808	0.626263	0.010770
0.080808	0.636364	0.012243
0.080808	0.646465	0.013588
0.080808	0.656566	0.014797
0.080808	0.666667	0.015858
0.080808	0.676768	0.016760
0.080808	0.686869	0.017494
0.080808	0.696970	0.018047
0.080808	0.707071	0.018409
0.080808	0.717172	0.018568
0.080808	0.727273	0.018511
0.080808	0.737374	0.018222
0.080808	0.747475	0.017684
0.080808	0.757576	0.016877
0.080808	0.767677	0.015777
0.080808	0.777778	0.014354
0.080808	0.787879	0.012573
0.080808	0.797980	0.010389
0.080808	0.808081	0.007749
0.080808	0.818182	0.004589
0.080808	0.828283	0.000833
0.080808	0.838384	-0.003610
0.080808	0.848485	-0.008841
0.080808	0.858586	-0.014968
0.080808	0.868687	-0.022097
0.080808	0.878788	-0.030308
0.080808	0.888889	-0.039610
0.080808	0.898990	-0.049855
0.080808	0.909091	-0.060592
0.080808	0.919192	-0.070778
0.080808	0.929293	-0.078293
0.080808	0.939394	-0.079060
0.080808	0.949495	-0.065518
0.080808	0.959596	-0.024064
0.080808	0.969697	0.068697
0.080808	0.979798	0.249022
0.080808	0.989899	0.558486
0.080808	1.000000	0.000000
0.090909	0.000000	0.000000
0.090909	0.010101	0.000272
0.090909	0.020202	0.000175
0.090909	0.030303	-0.000235
0.090909	0.040404	-0.000914
0.090909	0.050505	-0.001824
0.090909	0.060606	-0.002930
0.090909	0.070707	-0.004206
0.090909	0.080808	-0.005626
0.090909	0.090909	-0.007169
0.090909	0.101010	-0.008816
0.090909	0.111111	-0.010547
0.090909	0.121212	-0.012347
0.090909	0.131313	-0.014200
0.090909	0.141414	-0.016088
0.090909	0.151515	-0.017998
0.090909	0.161616	-0.019915
0.090909	0.171717	-0.021822
0.090909	0.181818	-0.023706
0.090909	0.191919	-0.025551
0.090909	0.202020	-0.027343
0.090909	0.212121	-0.029068
0.090909	0.222222	-0.030712
0.090909	0.232323	-0.032261
0.090909	0.242424	-0.033703
0.090909	0.252525	-0.035025
0.090909	0.262626	-0.036215
0.090909	0.272727	-0.037264
0.090909	0.282828	-0.038161
0.090909	0.292929	-0.038898
0.090909	0.303030	-0.039468
0.090909	0.313131	-0.039865
0.090909	0.323232	-0.040083
0.090909	0.333333	-0.040119
0.090909	0.343434	-0.039971
0.090909	0.353535	-0.039638
0.090909	0.363636	-0.039121
0.090909	0.373737	-0.038421
0.090909	0.383838	-0.037542
0.090909	0.393939	-0.036488
0.090909	0.404040	-0.035265
0.090909	0.414141	-0.033880
0.090909	0.424242	-0.032340
0.090909	0.434343	-0.030656
0.090909	0.444444	-0.028838
0.090909	0.454545	-0.026895
0.090909	0.464646	-0.024840
0.090909	0.474747	-0.022685
0.090909	0.484848	-0.020444
0.090909	0.494949	-0.018129
0.090909	0.505050	-0.015755
0.090909	0.515152	-0.013335
0.090909	0.525253	-0.010885
0.090909	0.535354	-0.008420
0.090909	0.545455	-0.005953
0.090909	0.555556	-0.003500
0.090909	0.565657	-0.001075
0.090909	0.575758	0.001306
0.090909	0.585859	0.003628
0.090909	0.595960	0.005878
0.090909	0.606061	0.008041
0.090909	0.616162	0.010103
0.090909	0.626263	0.012049
0.090909	0.636364	0.013867
0.090909	0.646465	0.015543
0.090909	0.656566	0.017063
0.090909	0.666667	0.018415
0.090909	0.676768	0.019585
0.090909	0.686869	0.020561
0.090909	0.696970	0.021328
0.090909	0.707071	0.021875
0.090909	0.717172	0.022185
0.090909	0.727273	0.022243
0.090909	0.737374	0.022032
0.090909	0.747475	0.021533
0.090909	0.757576	0.020723
0.090909	0.767677	0.019576
0.090909	0.777778	0.018061
0.090909	0.787879	0.016141
0.090909	0.797980	0.013773
0.090909	0.808081	0.010903
0.090909	0.818182	0.007470
0.090909	0.828283	0.003400
0.090909	0.838384	-0.001387
0.090909	0.848485	-0.006983
0.090909	0.858586	-0.013480
0.090909	0.868687	-0.020957
0.090909	0.878788	-0.029454
0.090909	0.888889	-0.038919
0.090909	0.898990	-0.049110
0.090909	0.909091	-0.059421
0.090909	0.919192	-0.068570
0.090909	0.929293	-0.074072
0.090909	0.939394	-0.071340
0.090909	0.949495	-0.052237
0.090909	0.959596	-0.002877
0.090909	0.969697	0.099069
0.090909	0.979798	0.285282
0.090909	0.989899	0.587375
0.090909	1.000000	0.000000
0.101010	0.000000	0.000000
0.101010	0.010101	0.000180
0.101010	0.020202	-0.000036
0.101010	0.030303	-0.000595
0.101010	0.040404	-0.001450
0.101010	0.050505	-0.002560
0.101010	0.060606	-0.003891
0.101010	0.070707	-0.005412
0.101010	0.080808	-0.007096
0.101010	0.090909	-0.008919
0.101010	0.101010	-0.010858
0.101010	0.111111	-0.012893
0.101010	0.121212	-0.015005
0.101010	0.131313	-0.017174
0.101010	0.141414	-0.019383
0.101010	0.151515	-0.021613
0.101010	0.161616	-0.023848
0.101010	0.171717	-0.026069
0.101010	0.181818	-0.028261
0.101010	0.191919	-0.030404
0.101010	0.202020	-0.032484
0.101010	0.212121	-0.034484
0.101010	0.222222	-0.036388
0.101010	0.232323	-0.038180
0.101010	0.242424	-0.039847
0.101010	0.252525	-0.041373
0.101010	0.262626	-0.042748
0.101010	0.272727	-0.043958
0.101010	0.282828	-0.044993
0.101010	0.292929	-0.045843
0.101010	0.303030	-0.046501
0.101010	0.313131	-0.046959
0.101010	0.323232	-0.047212
0.101010	0.333333	-0.047256
0.101010	0.343434	-0.047089
0.101010	0.353535	-0.046711
0.101010	0.363636	-0.046120
0.101010	0.373737	-0.045321
0.101010	0.383838	-0.044317
0.101010	0.393939	-0.043112
0.101010	0.404040	-0.041714
0.101010	0.414141	-0.040129
0.101010	0.424242	-0.038368
0.101010	0.434343	-0.036440
0.101010	0.444444	-0.034357
0.101010	0.454545	-0.032130