VARIABLES="x","y","V"
ZONE T="BLOCK1",i=100,j=100,F=POINT

0.000000	0.000000	0.000000
0.000000	0.010101	0.000000
0.000000	0.020202	0.000000
0.000000	0.030303	0.000000
0.000000	0.040404	0.000000
0.000000	0.050505	0.000000
0.000000	0.060606	0.000000
0.000000	0.070707	0.000000
0.000000	0.080808	0.000000
0.000000	0.090909	0.000000
0.000000	0.101010	0.000000
0.000000	0.111111	0.000000
0.000000	0.121212	0.000000
0.000000	0.131313	0.000000
0.000000	0.141414	0.000000
0.000000	0.151515	0.000000
0.000000	0.161616	0.000000
0.000000	0.171717	0.000000
0.000000	0.181818	0.000000
0.000000	0.191919	0.000000
0.000000	0.202020	0.000000
0.000000	0.212121	0.000000
0.000000	0.222222	0.000000
0.000000	0.232323	0.000000
0.000000	0.242424	0.000000
0.000000	0.252525	0.000000
0.000000	0.262626	0.000000
0.000000	0.272727	0.000000
0.000000	0.282828	0.000000
0.000000	0.292929	0.000000
0.000000	0.303030	0.000000
0.000000	0.313131	0.000000
0.000000	0.323232	0.000000
0.000000	0.333333	0.000000
0.000000	0.343434	0.000000
0.000000	0.353535	0.000000
0.000000	0.363636	0.000000
0.000000	0.373737	0.000000
0.000000	0.383838	0.000000
0.000000	0.393939	0.000000
0.000000	0.404040	0.000000
0.000000	0.414141	0.000000
0.000000	0.424242	0.000000
0.000000	0.434343	0.000000
0.000000	0.444444	0.000000
0.000000	0.454545	0.000000
0.000000	0.464646	0.000000
0.000000	0.474747	0.000000
0.000000	0.484848	0.000000
0.000000	0.494949	0.000000
0.000000	0.505050	0.000000
0.000000	0.515152	0.000000
0.000000	0.525253	0.000000
0.000000	0.535354	0.000000
0.000000	0.545455	0.000000
0.000000	0.555556	0.000000
0.000000	0.565657	0.000000
0.000000	0.575758	0.000000
0.000000	0.585859	0.000000
0.000000	0.595960	0.000000
0.000000	0.606061	0.000000
0.000000	0.616162	0.000000
0.000000	0.626263	0.000000
0.000000	0.636364	0.000000
0.000000	0.646465	0.000000
0.000000	0.656566	0.000000
0.000000	0.666667	0.000000
0.000000	0.676768	0.000000
0.000000	0.686869	0.000000
0.000000	0.696970	0.000000
0.000000	0.707071	0.000000
0.000000	0.717172	0.000000
0.000000	0.727273	0.000000
0.000000	0.737374	0.000000
0.000000	0.747475	0.000000
0.000000	0.757576	0.000000
0.000000	0.767677	0.000000
0.000000	0.777778	0.000000
0.000000	0.787879	0.000000
0.000000	0.797980	0.000000
0.000000	0.808081	0.000000
0.000000	0.818182	0.000000
0.000000	0.828283	0.000000
0.000000	0.838384	0.000000
0.000000	0.848485	0.000000
0.000000	0.858586	0.000000
0.000000	0.868687	0.000000
0.000000	0.878788	0.000000
0.000000	0.888889	0.000000
0.000000	0.898990	0.000000
0.000000	0.909091	0.000000
0.000000	0.919192	0.000000
0.000000	0.929293	0.000000
0.000000	0.939394	0.000000
0.000000	0.949495	0.000000
0.000000	0.959596	0.000000
0.000000	0.969697	0.000000
0.000000	0.979798	0.000000
0.000000	0.989899	0.000000
0.000000	1.000000	0.000000
0.010101	0.000000	0.000000
0.010101	0.010101	-0.000028
0.010101	0.020202	-0.000094
0.010101	0.030303	-0.000176
0.010101	0.040404	-0.000254
0.010101	0.050505	-0.000313
0.010101	0.060606	-0.000339
0.010101	0.070707	-0.000325
0.010101	0.080808	-0.000262
0.010101	0.090909	-0.000146
0.010101	0.101010	0.000029
0.010101	0.111111	0.000267
0.010101	0.121212	0.000571
0.010101	0.131313	0.000945
0.010101	0.141414	0.001389
0.010101	0.151515	0.001907
0.010101	0.161616	0.002499
0.010101	0.171717	0.003167
0.010101	0.181818	0.003910
0.010101	0.191919	0.004727
0.010101	0.202020	0.005619
0.010101	0.212121	0.006582
0.010101	0.222222	0.007614
0.010101	0.232323	0.008713
0.010101	0.242424	0.009873
0.010101	0.252525	0.011092
0.010101	0.262626	0.012362
0.010101	0.272727	0.013679
0.010101	0.282828	0.015037
0.010101	0.292929	0.016427
0.010101	0.303030	0.017844
0.010101	0.313131	0.019279
0.010101	0.323232	0.020723
0.010101	0.333333	0.022169
0.010101	0.343434	0.023609
0.010101	0.353535	0.025032
0.010101	0.363636	0.026432
0.010101	0.373737	0.027800
0.010101	0.383838	0.029126
0.010101	0.393939	0.030404
0.010101	0.404040	0.031625
0.010101	0.414141	0.032783
0.010101	0.424242	0.033871
0.010101	0.434343	0.034882
0.010101	0.444444	0.035812
0.010101	0.454545	0.036654
0.010101	0.464646	0.037406
0.010101	0.474747	0.038064
0.010101	0.484848	0.038624
0.010101	0.494949	0.039086
0.010101	0.505050	0.039448
0.010101	0.515152	0.039710
0.010101	0.525253	0.039873
0.010101	0.535354	0.039938
0.010101	0.545455	0.039906
0.010101	0.555556	0.039780
0.010101	0.565657	0.039565
0.010101	0.575758	0.039263
0.010101	0.585859	0.038880
0.010101	0.595960	0.038420
0.010101	0.606061	0.037889
0.010101	0.616162	0.037293
0.010101	0.626263	0.036639
0.010101	0.636364	0.035934
0.010101	0.646465	0.035184
0.010101	0.656566	0.034397
0.010101	0.666667	0.033581
0.010101	0.676768	0.032744
0.010101	0.686869	0.031894
0.010101	0.696970	0.031039
0.010101	0.707071	0.030188
0.010101	0.717172	0.029351
0.010101	0.727273	0.028537
0.010101	0.737374	0.027756
0.010101	0.747475	0.027018
0.010101	0.757576	0.026338
0.010101	0.767677	0.025726
0.010101	0.777778	0.025201
0.010101	0.787879	0.024778
0.010101	0.797980	0.024482
0.010101	0.808081	0.024337
0.010101	0.818182	0.024379
0.010101	0.828283	0.024648
0.010101	0.838384	0.025200
0.010101	0.848485	0.026105
0.010101	0.858586	0.027454
0.010101	0.868687	0.029367
0.010101	0.878788	0.032001
0.010101	0.888889	0.035561
0.010101	0.898990	0.040320
0.010101	0.909091	0.046635
0.010101	0.919192	0.054980
0.010101	0.929293	0.065982
0.010101	0.939394	0.080472
0.010101	0.949495	0.099493
0.010101	0.959596	0.124110
0.010101	0.969697	0.154275
0.010101	0.979798	0.183801
0.010101	0.989899	0.179561
0.010101	1.000000	0.000000
0.020202	0.000000	0.000000
0.020202	0.010101	-0.000049
0.020202	0.020202	-0.000148
0.020202	0.030303	-0.000261
0.020202	0.040404	-0.000359
0.020202	0.050505	-0.000418
0.020202	0.060606	-0.000419
0.020202	0.070707	-0.000345
0.020202	0.080808	-0.000183
0.020202	0.090909	0.000078
0.020202	0.101010	0.000445
0.020202	0.111111	0.000928
0.020202	0.121212	0.001531
0.020202	0.131313	0.002261
0.020202	0.141414	0.003120
0.020202	0.151515	0.004113
0.020202	0.161616	0.005241
0.020202	0.171717	0.006506
0.020202	0.181818	0.007907
0.020202	0.191919	0.009442
0.020202	0.202020	0.011110
0.020202	0.212121	0.012907
0.020202	0.222222	0.014829
0.020202	0.232323	0.016868
0.020202	0.242424	0.019019
0.020202	0.252525	0.021274
0.020202	0.262626	0.023622
0.020202	0.272727	0.026053
0.020202	0.282828	0.028557
0.020202	0.292929	0.031120
0.020202	0.303030	0.033731
0.020202	0.313131	0.036375
0.020202	0.323232	0.039039
0.020202	0.333333	0.041707
0.020202	0.343434	0.044365
0.020202	0.353535	0.046999
0.020202	0.363636	0.049592
0.020202	0.373737	0.052131
0.020202	0.383838	0.054601
0.020202	0.393939	0.056987
0.020202	0.404040	0.059276
0.020202	0.414141	0.061456
0.020202	0.424242	0.063514
0.020202	0.434343	0.065439
0.020202	0.444444	0.067221
0.020202	0.454545	0.068851
0.020202	0.464646	0.070321
0.020202	0.474747	0.071625
0.020202	0.484848	0.072757
0.020202	0.494949	0.073712
0.020202	0.505050	0.074489
0.020202	0.515152	0.075086
0.020202	0.525253	0.075502
0.020202	0.535354	0.075740
0.020202	0.545455	0.075801
0.020202	0.555556	0.075690
0.020202	0.565657	0.075411
0.020202	0.575758	0.074971
0.020202	0.585859	0.074378
0.020202	0.595960	0.073638
0.020202	0.606061	0.072763
0.020202	0.616162	0.071762
0.020202	0.626263	0.070645
0.020202	0.636364	0.069426
0.020202	0.646465	0.068116
0.020202	0.656566	0.066729
0.020202	0.666667	0.065279
0.020202	0.676768	0.063780
0.020202	0.686869	0.062247
0.020202	0.696970	0.060696
0.020202	0.707071	0.059143
0.020202	0.717172	0.057605
0.020202	0.727273	0.056100
0.020202	0.737374	0.054648
0.020202	0.747475	0.053268
0.020202	0.757576	0.051985
0.020202	0.767677	0.050823
0.020202	0.777778	0.049811
0.020202	0.787879	0.048982
0.020202	0.797980	0.048375
0.020202	0.808081	0.048039
0.020202	0.818182	0.048031
0.020202	0.828283	0.048423
0.020202	0.838384	0.049304
0.020202	0.848485	0.050788
0.020202	0.858586	0.053018
0.020202	0.868687	0.056174
0.020202	0.878788	0.060484
0.020202	0.888889	0.066231
0.020202	0.898990	0.073767
0.020202	0.909091	0.083515
0.020202	0.919192	0.095964
0.020202	0.929293	0.111632
0.020202	0.939394	0.130938
0.020202	0.949495	0.153847
0.020202	0.959596	0.178922
0.020202	0.969697	0.200846
0.020202	0.979798	0.204311
0.020202	0.989899	0.152282
0.020202	1.000000	0.000000
0.030303	0.000000	0.000000
0.030303	0.010101	-0.000056
0.030303	0.020202	-0.000160
0.030303	0.030303	-0.000269
0.030303	0.040404	-0.000348
0.030303	0.050505	-0.000368
0.030303	0.060606	-0.000305
0.030303	0.070707	-0.000138
0.030303	0.080808	0.000151
0.030303	0.090909	0.000574
0.030303	0.101010	0.001145
0.030303	0.111111	0.001873
0.030303	0.121212	0.002767
0.030303	0.131313	0.003833
0.030303	0.141414	0.005078
0.030303	0.151515	0.006503
0.030303	0.161616	0.008113
0.030303	0.171717	0.009908
0.030303	0.181818	0.011887
0.030303	0.191919	0.014048
0.030303	0.202020	0.016388
0.030303	0.212121	0.018901
0.030303	0.222222	0.021582
0.030303	0.232323	0.024421
0.030303	0.242424	0.027410
0.030303	0.252525	0.030537
0.030303	0.262626	0.033789
0.030303	0.272727	0.037153
0.030303	0.282828	0.040615
0.030303	0.292929	0.044158
0.030303	0.303030	0.047765
0.030303	0.313131	0.051418
0.030303	0.323232	0.055099
0.030303	0.333333	0.058790
0.030303	0.343434	0.062470
0.030303	0.353535	0.066121
0.030303	0.363636	0.069722
0.030303	0.373737	0.073255
0.030303	0.383838	0.076700
0.030303	0.393939	0.080039
0.030303	0.404040	0.083254
0.030303	0.414141	0.086327
0.030303	0.424242	0.089244
0.030303	0.434343	0.091987
0.030303	0.444444	0.094545
0.030303	0.454545	0.096904
0.030303	0.464646	0.099052
0.030303	0.474747	0.100981
0.030303	0.484848	0.102682
0.030303	0.494949	0.104149
0.030303	0.505050	0.105376
0.030303	0.515152	0.106362
0.030303	0.525253	0.107104
0.030303	0.535354	0.107602
0.030303	0.545455	0.107860
0.030303	0.555556	0.107879
0.030303	0.565657	0.107667
0.030303	0.575758	0.107230
0.030303	0.585859	0.106576
0.030303	0.595960	0.105715
0.030303	0.606061	0.104659
0.030303	0.616162	0.103420
0.030303	0.626263	0.102013
0.030303	0.636364	0.100452
0.030303	0.646465	0.098754
0.030303	0.656566	0.096937
0.030303	0.666667	0.095018
0.030303	0.676768	0.093017
0.030303	0.686869	0.090955
0.030303	0.696970	0.088853
0.030303	0.707071	0.086733
0.030303	0.717172	0.084618
0.030303	0.727273	0.082535
0.030303	0.737374	0.080510
0.030303	0.747475	0.078570
0.030303	0.757576	0.076749
0.030303	0.767677	0.075079
0.030303	0.777778	0.073602
0.030303	0.787879	0.072359
0.030303	0.797980	0.071404
0.030303	0.808081	0.070797
0.030303	0.818182	0.070611
0.030303	0.828283	0.070931
0.030303	0.838384	0.071866
0.030303	0.848485	0.073543
0.030303	0.858586	0.076121
0.030303	0.868687	0.079789
0.030303	0.878788	0.084774
0.030303	0.888889	0.091342
0.030303	0.898990	0.099791
0.030303	0.909091	0.110428
0.030303	0.919192	0.123517
0.030303	0.929293	0.139158
0.030303	0.939394	0.157030
0.030303	0.949495	0.175840
0.030303	0.959596	0.192212
0.030303	0.969697	0.198480
0.030303	0.979798	0.179130
0.030303	0.989899	0.110245
0.030303	1.000000	0.000000
0.040404	0.000000	0.000000
0.040404	0.010101	-0.000051
0.040404	0.020202	-0.000139
0.040404	0.030303	-0.000219
0.040404	0.040404	-0.000251
0.040404	0.050505	-0.000203
0.040404	0.060606	-0.000050
0.040404	0.070707	0.000234
0.040404	0.080808	0.000666
0.040404	0.090909	0.001265
0.040404	0.101010	0.002044
0.040404	0.111111	0.003015
0.040404	0.121212	0.004188
0.040404	0.131313	0.005572
0.040404	0.141414	0.007170
0.040404	0.151515	0.008989
0.040404	0.161616	0.011030
0.040404	0.171717	0.013294
0.040404	0.181818	0.015780
0.040404	0.191919	0.018485
0.040404	0.202020	0.021403
0.040404	0.212121	0.024530
0.040404	0.222222	0.027855
0.040404	0.232323	0.031370
0.040404	0.242424	0.035063
0.040404	0.252525	0.038920
0.040404	0.262626	0.042927
0.040404	0.272727	0.047067
0.040404	0.282828	0.051324
0.040404	0.292929	0.055677
0.040404	0.303030	0.060109
0.040404	0.313131	0.064597
0.040404	0.323232	0.069121
0.040404	0.333333	0.073659
0.040404	0.343434	0.078188
0.040404	0.353535	0.082686
0.040404	0.363636	0.087130
0.040404	0.373737	0.091498
0.040404	0.383838	0.095767
0.040404	0.393939	0.099917
0.040404	0.404040	0.103925
0.040404	0.414141	0.107772
0.040404	0.424242	0.111438
0.040404	0.434343	0.114906
0.040404	0.444444	0.118159
0.040404	0.454545	0.121181
0.040404	0.464646	0.123959
0.040404	0.474747	0.126479
0.040404	0.484848	0.128733
0.040404	0.494949	0.130710
0.040404	0.505050	0.132403
0.040404	0.515152	0.133809
0.040404	0.525253	0.134923
0.040404	0.535354	0.135744
0.040404	0.545455	0.136274
0.040404	0.555556	0.136514
0.040404	0.565657	0.136470
0.040404	0.575758	0.136147
0.040404	0.585859	0.135555
0.040404	0.595960	0.134704
0.040404	0.606061	0.133605
0.040404	0.616162	0.132273
0.040404	0.626263	0.130722
0.040404	0.636364	0.128970
0.040404	0.646465	0.127035
0.040404	0.656566	0.124938
0.040404	0.666667	0.122698
0.040404	0.676768	0.120341
0.040404	0.686869	0.117888
0.040404	0.696970	0.115367
0.040404	0.707071	0.112804
0.040404	0.717172	0.110228
0.040404	0.727273	0.107669
0.040404	0.737374	0.105159
0.040404	0.747475	0.102734
0.040404	0.757576	0.100431
0.040404	0.767677	0.098291
0.040404	0.777778	0.096360
0.040404	0.787879	0.094690
0.040404	0.797980	0.093339
0.040404	0.808081	0.092374
0.040404	0.818182	0.091872
0.040404	0.828283	0.091926
0.040404	0.838384	0.092640
0.040404	0.848485	0.094139
0.040404	0.858586	0.096570
0.040404	0.868687	0.100098
0.040404	0.878788	0.104908
0.040404	0.888889	0.111194
0.040404	0.898990	0.119143
0.040404	0.909091	0.128886
0.040404	0.919192	0.140417
0.040404	0.929293	0.153434
0.040404	0.939394	0.167035
0.040404	0.949495	0.179178
0.040404	0.959596	0.185737
0.040404	0.969697	0.179065
0.040404	0.979798	0.146894
0.040404	0.989899	0.077803
0.040404	1.000000	0.000000
0.050505	0.000000	0.000000
0.050505	0.010101	-0.000039
0.050505	0.020202	-0.000098
0.050505	0.030303	-0.000128
0.050505	0.040404	-0.000093
0.050505	0.050505	0.000042
0.050505	0.060606	0.000304
0.050505	0.070707	0.000719
0.050505	0.080808	0.001308
0.050505	0.090909	0.002088
0.050505	0.101010	0.003077
0.050505	0.111111	0.004286
0.050505	0.121212	0.005726
0.050505	0.131313	0.007406
0.050505	0.141414	0.009331
0.050505	0.151515	0.011507
0.050505	0.161616	0.013934
0.050505	0.171717	0.016614
0.050505	0.181818	0.019544
0.050505	0.191919	0.022721
0.050505	0.202020	0.026138
0.050505	0.212121	0.029788
0.050505	0.222222	0.033661
0.050505	0.232323	0.037746
0.050505	0.242424	0.042030
0.050505	0.252525	0.046497
0.050505	0.262626	0.051132
0.050505	0.272727	0.055915
0.050505	0.282828	0.060829
0.050505	0.292929	0.065852
0.050505	0.303030	0.070962
0.050505	0.313131	0.076138
0.050505	0.323232	0.081356
0.050505	0.333333	0.086591
0.050505	0.343434	0.091821
0.050505	0.353535	0.097019
0.050505	0.363636	0.102162
0.050505	0.373737	0.107225
0.050505	0.383838	0.112184
0.050505	0.393939	0.117015
0.050505	0.404040	0.121696
0.050505	0.414141	0.126203
0.050505	0.424242	0.130517
0.050505	0.434343	0.134615
0.050505	0.444444	0.138481
0.050505	0.454545	0.142095
0.050505	0.464646	0.145443
0.050505	0.474747	0.148510
0.050505	0.484848	0.151282
0.050505	0.494949	0.153750
0.050505	0.505050	0.155904
0.050505	0.515152	0.157738
0.050505	0.525253	0.159246
0.050505	0.535354	0.160424
0.050505	0.545455	0.161273
0.050505	0.555556	0.161794
0.050505	0.565657	0.161989
0.050505	0.575758	0.161864
0.050505	0.585859	0.161426
0.050505	0.595960	0.160685
0.050505	0.606061	0.159653
0.050505	0.616162	0.158342
0.050505	0.626263	0.156769
0.050505	0.636364	0.154951
0.050505	0.646465	0.152906
0.050505	0.656566	0.150657
0.050505	0.666667	0.148227
0.050505	0.676768	0.145639
0.050505	0.686869	0.142920
0.050505	0.696970	0.140098
0.050505	0.707071	0.137205
0.050505	0.717172	0.134270
0.050505	0.727273	0.131330
0.050505	0.737374	0.128418
0.050505	0.747475	0.125576
0.050505	0.757576	0.122844
0.050505	0.767677	0.120268
0.050505	0.777778	0.117897
0.050505	0.787879	0.115786
0.050505	0.797980	0.113995
0.050505	0.808081	0.112592
0.050505	0.818182	0.111654
0.050505	0.828283	0.111265
0.050505	0.838384	0.111523
0.050505	0.848485	0.112535
0.050505	0.858586	0.114418
0.050505	0.868687	0.117299
0.050505	0.878788	0.121302
0.050505	0.888889	0.126539
0.050505	0.898990	0.133077
0.050505	0.909091	0.140884
0.050505	0.919192	0.149740
0.050505	0.929293	0.159065
0.050505	0.939394	0.167638
0.050505	0.949495	0.173140
0.050505	0.959596	0.171463
0.050505	0.969697	0.156000
0.050505	0.979798	0.118226
0.050505	0.989899	0.055377
0.050505	1.000000	0.000000
0.060606	0.000000	0.000000
0.060606	0.010101	-0.000023
0.060606	0.020202	-0.000042
0.060606	0.030303	-0.000012
0.060606	0.040404	0.000104
0.060606	0.050505	0.000339
0.060606	0.060606	0.000722
0.060606	0.070707	0.001279
0.060606	0.080808	0.002030
0.060606	0.090909	0.002996
0.060606	0.101010	0.004192
0.060606	0.111111	0.005632
0.060606	0.121212	0.007326
0.060606	0.131313	0.009284
0.060606	0.141414	0.011511
0.060606	0.151515	0.014012
0.060606	0.161616	0.016787
0.060606	0.171717	0.019837
0.060606	0.181818	0.023158
0.060606	0.191919	0.026746
0.060606	0.202020	0.030595
0.060606	0.212121	0.034695
0.060606	0.222222	0.039035
0.060606	0.232323	0.043603
0.060606	0.242424	0.048384
0.060606	0.252525	0.053363
0.060606	0.262626	0.058520
0.060606	0.272727	0.063838
0.060606	0.282828	0.069295
0.060606	0.292929	0.074870
0.060606	0.303030	0.080540
0.060606	0.313131	0.086281
0.060606	0.323232	0.092068
0.060606	0.333333	0.097876
0.060606	0.343434	0.103681
0.060606	0.353535	0.109455
0.060606	0.363636	0.115174
0.060606	0.373737	0.120811
0.060606	0.383838	0.126342
0.060606	0.393939	0.131741
0.060606	0.404040	0.136985
0.060606	0.414141	0.142049
0.060606	0.424242	0.146911
0.060606	0.434343	0.151550
0.060606	0.444444	0.155946
0.060606	0.454545	0.160078
0.060606	0.464646	0.163931
0.060606	0.474747	0.167487
0.060606	0.484848	0.170734
0.060606	0.494949	0.173657
0.060606	0.505050	0.176248
0.060606	0.515152	0.178495
0.060606	0.525253	0.180394
0.060606	0.535354	0.181940
0.060606	0.545455	0.183128
0.060606	0.555556	0.183960
0.060606	0.565657	0.184436
0.060606	0.575758	0.184560
0.060606	0.585859	0.184338
0.060606	0.595960	0.183779
0.060606	0.606061	0.182892
0.060606	0.616162	0.181690
0.060606	0.626263	0.180187
0.060606	0.636364	0.178400
0.060606	0.646465	0.176349
0.060606	0.656566	0.174054
0.060606	0.666667	0.171538
0.060606	0.676768	0.168827
0.060606	0.686869	0.165947
0.060606	0.696970	0.162929
0.060606	0.707071	0.159803
0.060606	0.717172	0.156604
0.060606	0.727273	0.153366
0.060606	0.737374	0.150129
0.060606	0.747475	0.146934
0.060606	0.757576	0.143823
0.060606	0.767677	0.140845
0.060606	0.777778	0.138049
0.060606	0.787879	0.135490
0.060606	0.797980	0.133228
0.060606	0.808081	0.131326
0.060606	0.818182	0.129855
0.060606	0.828283	0.128889
0.060606	0.838384	0.128509
0.060606	0.848485	0.128799
0.060606	0.858586	0.129845
0.060606	0.868687	0.131728
0.060606	0.878788	0.134514
0.060606	0.888889	0.138237
0.060606	0.898990	0.142866
0.060606	0.909091	0.148251
0.060606	0.919192	0.154030
0.060606	0.929293	0.159477
0.060606	0.939394	0.163254
0.060606	0.949495	0.163054
0.060606	0.959596	0.155163
0.060606	0.969697	0.134297
0.060606	0.979798	0.095179
0.060606	0.989899	0.040263
0.060606	1.000000	0.000000
0.070707	0.000000	0.000000
0.070707	0.010101	-0.000006
0.070707	0.020202	0.000020
0.070707	0.030303	0.000118
0.070707	0.040404	0.000323
0.070707	0.050505	0.000667
0.070707	0.060606	0.001179
0.070707	0.070707	0.001882
0.070707	0.080808	0.002800
0.070707	0.090909	0.003951
0.070707	0.101010	0.005352
0.070707	0.111111	0.007015
0.070707	0.121212	0.008952
0.070707	0.131313	0.011171
0.070707	0.141414	0.013678
0.070707	0.151515	0.016476
0.070707	0.161616	0.019566
0.070707	0.171717	0.022948
0.070707	0.181818	0.026617
0.070707	0.191919	0.030568
0.070707	0.202020	0.034793
0.070707	0.212121	0.039282
0.070707	0.222222	0.044024
0.070707	0.232323	0.049004
0.070707	0.242424	0.054208
0.070707	0.252525	0.059618
0.070707	0.262626	0.065216
0.070707	0.272727	0.070980
0.070707	0.282828	0.076890
0.070707	0.292929	0.082923
0.070707	0.303030	0.089055
0.070707	0.313131	0.095261
0.070707	0.323232	0.101517
0.070707	0.333333	0.107796
0.070707	0.343434	0.114072
0.070707	0.353535	0.120320
0.070707	0.363636	0.126511
0.070707	0.373737	0.132621
0.070707	0.383838	0.138622
0.070707	0.393939	0.144490
0.070707	0.404040	0.150200
0.070707	0.414141	0.155727
0.070707	0.424242	0.161049
0.070707	0.434343	0.166142
0.070707	0.444444	0.170987
0.070707	0.454545	0.175563
0.070707	0.464646	0.179851
0.070707	0.474747	0.183835
0.070707	0.484848	0.187500
0.070707	0.494949	0.190832
0.070707	0.505050	0.193819
0.070707	0.515152	0.196450
0.070707	0.525253	0.198718
0.070707	0.535354	0.200617
0.070707	0.545455	0.202142
0.070707	0.555556	0.203290
0.070707	0.565657	0.204062
0.070707	0.575758	0.204460
0.070707	0.585859	0.204487
0.070707	0.595960	0.204150
0.070707	0.606061	0.203459
0.070707	0.616162	0.202422
0.070707	0.626263	0.201055
0.070707	0.636364	0.199371
0.070707	0.646465	0.197388
0.070707	0.656566	0.195127
0.070707	0.666667	0.192610
0.070707	0.676768	0.189861
0.070707	0.686869	0.186908
0.070707	0.696970	0.183778
0.070707	0.707071	0.180504
0.070707	0.717172	0.177119
0.070707	0.727273	0.173660
0.070707	0.737374	0.170165
0.070707	0.747475	0.166675
0.070707	0.757576	0.163234
0.070707	0.767677	0.159888
0.070707	0.777778	0.156688
0.070707	0.787879	0.153684
0.070707	0.797980	0.150933
0.070707	0.808081	0.148492
0.070707	0.818182	0.146422
0.070707	0.828283	0.144785
0.070707	0.838384	0.143643
0.070707	0.848485	0.143057
0.070707	0.858586	0.143080
0.070707	0.868687	0.143754
0.070707	0.878788	0.145093
0.070707	0.888889	0.147073
0.070707	0.898990	0.149592
0.070707	0.909091	0.152424
0.070707	0.919192	0.155135
0.070707	0.929293	0.156944
0.070707	0.939394	0.156525
0.070707	0.949495	0.151737
0.070707	0.959596	0.139398
0.070707	0.969697	0.115519
0.070707	0.979798	0.077329
0.070707	0.989899	0.030070
0.070707	1.000000	0.000000
0.080808	0.000000	0.000000
0.080808	0.010101	0.000012
0.080808	0.020202	0.000086
0.080808	0.030303	0.000255
0.080808	0.040404	0.000554
0.080808	0.050505	0.001011
0.080808	0.060606	0.001655
0.080808	0.070707	0.002508
0.080808	0.080808	0.003593
0.080808	0.090909	0.004928
0.080808	0.101010	0.006529
0.080808	0.111111	0.008408
0.080808	0.121212	0.010577
0.080808	0.131313	0.013043
0.080808	0.141414	0.015811
0.080808	0.151515	0.018884
0.080808	0.161616	0.022263
0.080808	0.171717	0.025945
0.080808	0.181818	0.029926
0.080808	0.191919	0.034200
0.080808	0.202020	0.038759
0.080808	0.212121	0.043590
0.080808	0.222222	0.048682
0.080808	0.232323	0.054020
0.080808	0.242424	0.059588
0.080808	0.252525	0.065367
0.080808	0.262626	0.071339
0.080808	0.272727	0.077481
0.080808	0.282828	0.083772
0.080808	0.292929	0.090189
0.080808	0.303030	0.096707
0.080808	0.313131	0.103301
0.080808	0.323232	0.109945
0.080808	0.333333	0.116613
0.080808	0.343434	0.123278
0.080808	0.353535	0.129913
0.080808	0.363636	0.136492
0.080808	0.373737	0.142989
0.080808	0.383838	0.149376
0.080808	0.393939	0.155629
0.080808	0.404040	0.161721
0.080808	0.414141	0.167629
0.080808	0.424242	0.173329
0.080808	0.434343	0.178798
0.080808	0.444444	0.184016
0.080808	0.454545	0.188961
0.080808	0.464646	0.193616
0.080808	0.474747	0.197963
0.080808	0.484848	0.201986
0.080808	0.494949	0.205671
0.080808	0.505050	0.209004
0.080808	0.515152	0.211976
0.080808	0.525253	0.214576
0.080808	0.535354	0.216798
0.080808	0.545455	0.218636
0.080808	0.555556	0.220085
0.080808	0.565657	0.221146
0.080808	0.575758	0.221817
0.080808	0.585859	0.222101
0.080808	0.595960	0.222004
0.080808	0.606061	0.221531
0.080808	0.616162	0.220691
0.080808	0.626263	0.219497
0.080808	0.636364	0.217960
0.080808	0.646465	0.216097
0.080808	0.656566	0.213926
0.080808	0.666667	0.211468
0.080808	0.676768	0.208745
0.080808	0.686869	0.205782
0.080808	0.696970	0.202608
0.080808	0.707071	0.199253
0.080808	0.717172	0.195749
0.080808	0.727273	0.192131
0.080808	0.737374	0.188436
0.080808	0.747475	0.184705
0.080808	0.757576	0.180978
0.080808	0.767677	0.177302
0.080808	0.777778	0.173721
0.080808	0.787879	0.170285
0.080808	0.797980	0.167041
0.080808	0.808081	0.164042
0.080808	0.818182	0.161337
0.080808	0.828283	0.158975
0.080808	0.838384	0.157001
0.080808	0.848485	0.155452
0.080808	0.858586	0.154356
0.080808	0.868687	0.153719
0.080808	0.878788	0.153521
0.080808	0.888889	0.153692
0.080808	0.898990	0.154089
0.080808	0.909091	0.154446
0.080808	0.919192	0.154303
0.080808	0.929293	0.152887
0.080808	0.939394	0.148950
0.080808	0.949495	0.140590
0.080808	0.959596	0.125180
0.080808	0.969697	0.099865
0.080808	0.979798	0.063682
0.080808	0.989899	0.023114
0.080808	1.000000	0.000000
0.090909	0.000000	0.000000
0.090909	0.010101	0.000030
0.090909	0.020202	0.000151
0.090909	0.030303	0.000394
0.090909	0.040404	0.000788
0.090909	0.050505	0.001360
0.090909	0.060606	0.002137
0.090909	0.070707	0.003140
0.090909	0.080808	0.004391
0.090909	0.090909	0.005907
0.090909	0.101010	0.007703
0.090909	0.111111	0.009792
0.090909	0.121212	0.012183
0.090909	0.131313	0.014883
0.090909	0.141414	0.017898
0.090909	0.151515	0.021228
0.090909	0.161616	0.024874
0.090909	0.171717	0.028833
0.090909	0.181818	0.033099
0.090909	0.191919	0.037666
0.090909	0.202020	0.042524
0.090909	0.212121	0.047661
0.090909	0.222222	0.053064
0.090909	0.232323	0.058717
0.090909	0.242424	0.064604
0.090909	0.252525	0.070705
0.090909	0.262626	0.077000
0.090909	0.272727	0.083468
0.090909	0.282828	0.090086
0.090909	0.292929	0.096829
0.090909	0.303030	0.103674
0.090909	0.313131	0.110594
0.090909	0.323232	0.117563
0.090909	0.333333	0.124555
0.090909	0.343434	0.131543
0.090909	0.353535	0.138500
0.090909	0.363636	0.145398
0.090909	0.373737	0.152212
0.090909	0.383838	0.158914
0.090909	0.393939	0.165480
0.090909	0.404040	0.171883
0.090909	0.414141	0.178100
0.090909	0.424242	0.184107
0.090909	0.434343	0.189882
0.090909	0.444444	0.195403
0.090909	0.454545	0.200651
0.090909	0.464646	0.205606
0.090909	0.474747	0.210250
0.090909	0.484848	0.214569
0.090909	0.494949	0.218548
0.090909	0.505050	0.222173
0.090909	0.515152	0.225433
0.090909	0.525253	0.228319
0.090909	0.535354	0.230821
0.090909	0.545455	0.232935
0.090909	0.555556	0.234655
0.090909	0.565657	0.235978
0.090909	0.575758	0.236904
0.090909	0.585859	0.237433
0.090909	0.595960	0.237569
0.090909	0.606061	0.237316
0.090909	0.616162	0.236681
0.090909	0.626263	0.235674
0.090909	0.636364	0.234305
0.090909	0.646465	0.232589
0.090909	0.656566	0.230540
0.090909	0.666667	0.228179
0.090909	0.676768	0.225524
0.090909	0.686869	0.222599
0.090909	0.696970	0.219429
0.090909	0.707071	0.216043
0.090909	0.717172	0.212470
0.090909	0.727273	0.208743
0.090909	0.737374	0.204897
0.090909	0.747475	0.200970
0.090909	0.757576	0.196999
0.090909	0.767677	0.193026
0.090909	0.777778	0.189093
0.090909	0.787879	0.185242
0.090909	0.797980	0.181518
0.090909	0.808081	0.177961
0.090909	0.818182	0.174611
0.090909	0.828283	0.171505
0.090909	0.838384	0.168672
0.090909	0.848485	0.166131
0.090909	0.858586	0.163886
0.090909	0.868687	0.161922
0.090909	0.878788	0.160189
0.090909	0.888889	0.158595
0.090909	0.898990	0.156971
0.090909	0.909091	0.155040
0.090909	0.919192	0.152345
0.090909	0.929293	0.148156
0.090909	0.939394	0.141340
0.090909	0.949495	0.130252
0.090909	0.959596	0.112793
0.090909	0.969697	0.087038
0.090909	0.979798	0.053264
0.090909	0.989899	0.018285
0.090909	1.000000	0.000000
0.101010	0.000000	0.000000
0.101010	0.010101	0.000047
0.101010	0.020202	0.000215
0.101010	0.030303	0.000530
0.101010	0.040404	0.001019
0.101010	0.050505	0.001706
0.101010	0.060606	0.002615
0.101010	0.070707	0.003768
0.101010	0.080808	0.005183
0.101010	0.090909	0.006877
0.101010	0.101010	0.008864
0.101010	0.111111	0.011156
0.101010	0.121212	0.013761
0.101010	0.131313	0.016686
0.101010	0.141414	0.019934
0.101010	0.151515	0.023508
0.101010	0.161616	0.027405
0.101010	0.171717	0.031621
0.101010	0.181818	0.036152
0.101010	0.191919	0.040988
0.101010	0.202020	0.046120
0.101010	0.212121	0.051535
0.101010	0.222222	0.057219
0.101010	0.232323	0.063156
0.101010	0.242424	0.069327
0.101010	0.252525	0.075714
0.101010	0.262626	0.082295
0.101010	0.272727	0.089049
0.101010	0.282828	0.095951
0.101010	0.292929	0.102979
0.101010	0.303030	0.110105
0.101010	0.313131	0.117304
0.101010	0.323232	0.124551
0.101010	0.333333	0.131817
0.101010	0.343434	0.139076
0.101010	0.353535	0.146300
0.101010	0.363636	0.153463
0.101010	0.373737	0.160537
0.101010	0.383838	0.167497
0.101010	0.393939	0.174317
0.101010	0.404040	0.180972
0.101010	0.414141	0.187437
0.101010	0.424242	0.193690
0.101010	0.434343	0.199708
0.101010	0.444444	0.205470
0.101010	0.454545	0.210957
0.101010	0.464646	0.216150
0.101010	0.474747	0.221031
0.101010	0.484848	0.225586
0.101010	0.494949	0.229799
0.101010	0.505050	0.233658
0.101010	0.515152	0.237152
0.101010	0.525253	0.240271
0.101010	0.535354	0.243005
0.101010	0.545455	0.245349
0.101010	0.555556	0.247298
0.101010	0.565657	0.248847
0.101010	0.575758	0.249995
0.101010	0.585859	0.250741
0.101010	0.595960	0.251088
0.101010	0.606061	0.251038
0.101010	0.616162	0.250598
0.101010	0.626263	0.249773
0.101010	0.636364	0.248573
0.101010	0.646465	0.247010
0.101010	0.656566	0.245097
0.101010	0.666667	0.242849